LAMMPS data file. CGCMM style. atom_style atomic generated by VMD/TopoTools v1.8 on Tue Jun 18 08:51:01 +0800 2024
 9792 atoms
 0 bonds
 0 angles
 0 dihedrals
 0 impropers
 1 atom types
 0 bond types
 0 angle types
 0 dihedral types
 0 improper types
 -1.325127 498.674873  xlo xhi
 -0.184999 49.815001  ylo yhi
 -250.000000 250.000000  zlo zhi

# Pair Coeffs
#
# 1  CA

 Masses

 1 12.010700 # CA

 Atoms # atomic

1 1 0.000000 0.000000 0.000000 # CA
2 1 -1.228024 0.709000 0.000000 # CA
3 1 -1.228024 2.127000 0.000000 # CA
4 1 0.000000 2.836000 0.000000 # CA
5 1 2.456048 0.000000 0.000000 # CA
6 1 1.228024 0.709000 0.000000 # CA
7 1 1.228024 2.127000 0.000000 # CA
8 1 2.456048 2.836000 0.000000 # CA
9 1 4.912096 0.000000 0.000000 # CA
10 1 3.684072 0.709000 0.000000 # CA
11 1 3.684072 2.127000 0.000000 # CA
12 1 4.912096 2.836000 0.000000 # CA
13 1 7.368144 0.000000 0.000000 # CA
14 1 6.140120 0.709000 0.000000 # CA
15 1 6.140120 2.127000 0.000000 # CA
16 1 7.368144 2.836000 0.000000 # CA
17 1 9.824192 0.000000 0.000000 # CA
18 1 8.596169 0.709000 0.000000 # CA
19 1 8.596169 2.127000 0.000000 # CA
20 1 9.824192 2.836000 0.000000 # CA
21 1 12.280240 0.000000 0.000000 # CA
22 1 11.052217 0.709000 0.000000 # CA
23 1 11.052217 2.127000 0.000000 # CA
24 1 12.280240 2.836000 0.000000 # CA
25 1 14.736288 0.000000 0.000000 # CA
26 1 13.508265 0.709000 0.000000 # CA
27 1 13.508265 2.127000 0.000000 # CA
28 1 14.736288 2.836000 0.000000 # CA
29 1 17.192337 0.000000 0.000000 # CA
30 1 15.964313 0.709000 0.000000 # CA
31 1 15.964313 2.127000 0.000000 # CA
32 1 17.192337 2.836000 0.000000 # CA
33 1 19.648384 0.000000 0.000000 # CA
34 1 18.420361 0.709000 0.000000 # CA
35 1 18.420361 2.127000 0.000000 # CA
36 1 19.648384 2.836000 0.000000 # CA
37 1 22.104433 0.000000 0.000000 # CA
38 1 20.876408 0.709000 0.000000 # CA
39 1 20.876408 2.127000 0.000000 # CA
40 1 22.104433 2.836000 0.000000 # CA
41 1 24.560480 0.000000 0.000000 # CA
42 1 23.332457 0.709000 0.000000 # CA
43 1 23.332457 2.127000 0.000000 # CA
44 1 24.560480 2.836000 0.000000 # CA
45 1 27.016529 0.000000 0.000000 # CA
46 1 25.788504 0.709000 0.000000 # CA
47 1 25.788504 2.127000 0.000000 # CA
48 1 27.016529 2.836000 0.000000 # CA
49 1 29.472576 0.000000 0.000000 # CA
50 1 28.244553 0.709000 0.000000 # CA
51 1 28.244553 2.127000 0.000000 # CA
52 1 29.472576 2.836000 0.000000 # CA
53 1 31.928625 0.000000 0.000000 # CA
54 1 30.700600 0.709000 0.000000 # CA
55 1 30.700600 2.127000 0.000000 # CA
56 1 31.928625 2.836000 0.000000 # CA
57 1 34.384674 0.000000 0.000000 # CA
58 1 33.156647 0.709000 0.000000 # CA
59 1 33.156647 2.127000 0.000000 # CA
60 1 34.384674 2.836000 0.000000 # CA
61 1 36.840721 0.000000 0.000000 # CA
62 1 35.612698 0.709000 0.000000 # CA
63 1 35.612698 2.127000 0.000000 # CA
64 1 36.840721 2.836000 0.000000 # CA
65 1 39.296768 0.000000 0.000000 # CA
66 1 38.068745 0.709000 0.000000 # CA
67 1 38.068745 2.127000 0.000000 # CA
68 1 39.296768 2.836000 0.000000 # CA
69 1 41.752815 0.000000 0.000000 # CA
70 1 40.524792 0.709000 0.000000 # CA
71 1 40.524792 2.127000 0.000000 # CA
72 1 41.752815 2.836000 0.000000 # CA
73 1 44.208866 0.000000 0.000000 # CA
74 1 42.980843 0.709000 0.000000 # CA
75 1 42.980843 2.127000 0.000000 # CA
76 1 44.208866 2.836000 0.000000 # CA
77 1 46.664913 0.000000 0.000000 # CA
78 1 45.436890 0.709000 0.000000 # CA
79 1 45.436890 2.127000 0.000000 # CA
80 1 46.664913 2.836000 0.000000 # CA
81 1 49.120960 0.000000 0.000000 # CA
82 1 47.892937 0.709000 0.000000 # CA
83 1 47.892937 2.127000 0.000000 # CA
84 1 49.120960 2.836000 0.000000 # CA
85 1 51.577007 0.000000 0.000000 # CA
86 1 50.348984 0.709000 0.000000 # CA
87 1 50.348984 2.127000 0.000000 # CA
88 1 51.577007 2.836000 0.000000 # CA
89 1 54.033058 0.000000 0.000000 # CA
90 1 52.805035 0.709000 0.000000 # CA
91 1 52.805035 2.127000 0.000000 # CA
92 1 54.033058 2.836000 0.000000 # CA
93 1 56.489105 0.000000 0.000000 # CA
94 1 55.261082 0.709000 0.000000 # CA
95 1 55.261082 2.127000 0.000000 # CA
96 1 56.489105 2.836000 0.000000 # CA
97 1 58.945152 0.000000 0.000000 # CA
98 1 57.717129 0.709000 0.000000 # CA
99 1 57.717129 2.127000 0.000000 # CA
100 1 58.945152 2.836000 0.000000 # CA
101 1 61.401199 0.000000 0.000000 # CA
102 1 60.173176 0.709000 0.000000 # CA
103 1 60.173176 2.127000 0.000000 # CA
104 1 61.401199 2.836000 0.000000 # CA
105 1 63.857250 0.000000 0.000000 # CA
106 1 62.629227 0.709000 0.000000 # CA
107 1 62.629227 2.127000 0.000000 # CA
108 1 63.857250 2.836000 0.000000 # CA
109 1 66.313293 0.000000 0.000000 # CA
110 1 65.085274 0.709000 0.000000 # CA
111 1 65.085274 2.127000 0.000000 # CA
112 1 66.313293 2.836000 0.000000 # CA
113 1 68.769348 0.000000 0.000000 # CA
114 1 67.541321 0.709000 0.000000 # CA
115 1 67.541321 2.127000 0.000000 # CA
116 1 68.769348 2.836000 0.000000 # CA
117 1 71.225395 0.000000 0.000000 # CA
118 1 69.997368 0.709000 0.000000 # CA
119 1 69.997368 2.127000 0.000000 # CA
120 1 71.225395 2.836000 0.000000 # CA
121 1 73.681442 0.000000 0.000000 # CA
122 1 72.453415 0.709000 0.000000 # CA
123 1 72.453415 2.127000 0.000000 # CA
124 1 73.681442 2.836000 0.000000 # CA
125 1 76.137489 0.000000 0.000000 # CA
126 1 74.909462 0.709000 0.000000 # CA
127 1 74.909462 2.127000 0.000000 # CA
128 1 76.137489 2.836000 0.000000 # CA
129 1 78.593536 0.000000 0.000000 # CA
130 1 77.365517 0.709000 0.000000 # CA
131 1 77.365517 2.127000 0.000000 # CA
132 1 78.593536 2.836000 0.000000 # CA
133 1 81.049583 0.000000 0.000000 # CA
134 1 79.821564 0.709000 0.000000 # CA
135 1 79.821564 2.127000 0.000000 # CA
136 1 81.049583 2.836000 0.000000 # CA
137 1 83.505630 0.000000 0.000000 # CA
138 1 82.277611 0.709000 0.000000 # CA
139 1 82.277611 2.127000 0.000000 # CA
140 1 83.505630 2.836000 0.000000 # CA
141 1 85.961685 0.000000 0.000000 # CA
142 1 84.733658 0.709000 0.000000 # CA
143 1 84.733658 2.127000 0.000000 # CA
144 1 85.961685 2.836000 0.000000 # CA
145 1 88.417732 0.000000 0.000000 # CA
146 1 87.189705 0.709000 0.000000 # CA
147 1 87.189705 2.127000 0.000000 # CA
148 1 88.417732 2.836000 0.000000 # CA
149 1 90.873779 0.000000 0.000000 # CA
150 1 89.645752 0.709000 0.000000 # CA
151 1 89.645752 2.127000 0.000000 # CA
152 1 90.873779 2.836000 0.000000 # CA
153 1 93.329826 0.000000 0.000000 # CA
154 1 92.101799 0.709000 0.000000 # CA
155 1 92.101799 2.127000 0.000000 # CA
156 1 93.329826 2.836000 0.000000 # CA
157 1 95.785873 0.000000 0.000000 # CA
158 1 94.557846 0.709000 0.000000 # CA
159 1 94.557846 2.127000 0.000000 # CA
160 1 95.785873 2.836000 0.000000 # CA
161 1 98.241920 0.000000 0.000000 # CA
162 1 97.013901 0.709000 0.000000 # CA
163 1 97.013901 2.127000 0.000000 # CA
164 1 98.241920 2.836000 0.000000 # CA
165 1 100.697968 0.000000 0.000000 # CA
166 1 99.469948 0.709000 0.000000 # CA
167 1 99.469948 2.127000 0.000000 # CA
168 1 100.697968 2.836000 0.000000 # CA
169 1 103.154015 0.000000 0.000000 # CA
170 1 101.925995 0.709000 0.000000 # CA
171 1 101.925995 2.127000 0.000000 # CA
172 1 103.154015 2.836000 0.000000 # CA
173 1 105.610069 0.000000 0.000000 # CA
174 1 104.382042 0.709000 0.000000 # CA
175 1 104.382042 2.127000 0.000000 # CA
176 1 105.610069 2.836000 0.000000 # CA
177 1 108.066116 0.000000 0.000000 # CA
178 1 106.838089 0.709000 0.000000 # CA
179 1 106.838089 2.127000 0.000000 # CA
180 1 108.066116 2.836000 0.000000 # CA
181 1 110.522163 0.000000 0.000000 # CA
182 1 109.294136 0.709000 0.000000 # CA
183 1 109.294136 2.127000 0.000000 # CA
184 1 110.522163 2.836000 0.000000 # CA
185 1 112.978210 0.000000 0.000000 # CA
186 1 111.750183 0.709000 0.000000 # CA
187 1 111.750183 2.127000 0.000000 # CA
188 1 112.978210 2.836000 0.000000 # CA
189 1 115.434258 0.000000 0.000000 # CA
190 1 114.206238 0.709000 0.000000 # CA
191 1 114.206238 2.127000 0.000000 # CA
192 1 115.434258 2.836000 0.000000 # CA
193 1 117.890305 0.000000 0.000000 # CA
194 1 116.662285 0.709000 0.000000 # CA
195 1 116.662285 2.127000 0.000000 # CA
196 1 117.890305 2.836000 0.000000 # CA
197 1 120.346352 0.000000 0.000000 # CA
198 1 119.118332 0.709000 0.000000 # CA
199 1 119.118332 2.127000 0.000000 # CA
200 1 120.346352 2.836000 0.000000 # CA
201 1 122.802399 0.000000 0.000000 # CA
202 1 121.574379 0.709000 0.000000 # CA
203 1 121.574379 2.127000 0.000000 # CA
204 1 122.802399 2.836000 0.000000 # CA
205 1 125.258453 0.000000 0.000000 # CA
206 1 124.030426 0.709000 0.000000 # CA
207 1 124.030426 2.127000 0.000000 # CA
208 1 125.258453 2.836000 0.000000 # CA
209 1 127.714500 0.000000 0.000000 # CA
210 1 126.486473 0.709000 0.000000 # CA
211 1 126.486473 2.127000 0.000000 # CA
212 1 127.714500 2.836000 0.000000 # CA
213 1 130.170547 0.000000 0.000000 # CA
214 1 128.942520 0.709000 0.000000 # CA
215 1 128.942520 2.127000 0.000000 # CA
216 1 130.170547 2.836000 0.000000 # CA
217 1 132.626587 0.000000 0.000000 # CA
218 1 131.398575 0.709000 0.000000 # CA
219 1 131.398575 2.127000 0.000000 # CA
220 1 132.626587 2.836000 0.000000 # CA
221 1 135.082642 0.000000 0.000000 # CA
222 1 133.854614 0.709000 0.000000 # CA
223 1 133.854614 2.127000 0.000000 # CA
224 1 135.082642 2.836000 0.000000 # CA
225 1 137.538696 0.000000 0.000000 # CA
226 1 136.310669 0.709000 0.000000 # CA
227 1 136.310669 2.127000 0.000000 # CA
228 1 137.538696 2.836000 0.000000 # CA
229 1 139.994736 0.000000 0.000000 # CA
230 1 138.766708 0.709000 0.000000 # CA
231 1 138.766708 2.127000 0.000000 # CA
232 1 139.994736 2.836000 0.000000 # CA
233 1 142.450790 0.000000 0.000000 # CA
234 1 141.222763 0.709000 0.000000 # CA
235 1 141.222763 2.127000 0.000000 # CA
236 1 142.450790 2.836000 0.000000 # CA
237 1 144.906830 0.000000 0.000000 # CA
238 1 143.678818 0.709000 0.000000 # CA
239 1 143.678818 2.127000 0.000000 # CA
240 1 144.906830 2.836000 0.000000 # CA
241 1 147.362885 0.000000 0.000000 # CA
242 1 146.134857 0.709000 0.000000 # CA
243 1 146.134857 2.127000 0.000000 # CA
244 1 147.362885 2.836000 0.000000 # CA
245 1 149.818924 0.000000 0.000000 # CA
246 1 148.590912 0.709000 0.000000 # CA
247 1 148.590912 2.127000 0.000000 # CA
248 1 149.818924 2.836000 0.000000 # CA
249 1 152.274979 0.000000 0.000000 # CA
250 1 151.046951 0.709000 0.000000 # CA
251 1 151.046951 2.127000 0.000000 # CA
252 1 152.274979 2.836000 0.000000 # CA
253 1 154.731033 0.000000 0.000000 # CA
254 1 153.503006 0.709000 0.000000 # CA
255 1 153.503006 2.127000 0.000000 # CA
256 1 154.731033 2.836000 0.000000 # CA
257 1 157.187073 0.000000 0.000000 # CA
258 1 155.959045 0.709000 0.000000 # CA
259 1 155.959045 2.127000 0.000000 # CA
260 1 157.187073 2.836000 0.000000 # CA
261 1 159.643127 0.000000 0.000000 # CA
262 1 158.415100 0.709000 0.000000 # CA
263 1 158.415100 2.127000 0.000000 # CA
264 1 159.643127 2.836000 0.000000 # CA
265 1 162.099167 0.000000 0.000000 # CA
266 1 160.871140 0.709000 0.000000 # CA
267 1 160.871140 2.127000 0.000000 # CA
268 1 162.099167 2.836000 0.000000 # CA
269 1 164.555222 0.000000 0.000000 # CA
270 1 163.327194 0.709000 0.000000 # CA
271 1 163.327194 2.127000 0.000000 # CA
272 1 164.555222 2.836000 0.000000 # CA
273 1 167.011261 0.000000 0.000000 # CA
274 1 165.783249 0.709000 0.000000 # CA
275 1 165.783249 2.127000 0.000000 # CA
276 1 167.011261 2.836000 0.000000 # CA
277 1 169.467316 0.000000 0.000000 # CA
278 1 168.239288 0.709000 0.000000 # CA
279 1 168.239288 2.127000 0.000000 # CA
280 1 169.467316 2.836000 0.000000 # CA
281 1 171.923370 0.000000 0.000000 # CA
282 1 170.695343 0.709000 0.000000 # CA
283 1 170.695343 2.127000 0.000000 # CA
284 1 171.923370 2.836000 0.000000 # CA
285 1 174.379410 0.000000 0.000000 # CA
286 1 173.151382 0.709000 0.000000 # CA
287 1 173.151382 2.127000 0.000000 # CA
288 1 174.379410 2.836000 0.000000 # CA
289 1 176.835464 0.000000 0.000000 # CA
290 1 175.607437 0.709000 0.000000 # CA
291 1 175.607437 2.127000 0.000000 # CA
292 1 176.835464 2.836000 0.000000 # CA
293 1 179.291504 0.000000 0.000000 # CA
294 1 178.063477 0.709000 0.000000 # CA
295 1 178.063477 2.127000 0.000000 # CA
296 1 179.291504 2.836000 0.000000 # CA
297 1 181.747559 0.000000 0.000000 # CA
298 1 180.519531 0.709000 0.000000 # CA
299 1 180.519531 2.127000 0.000000 # CA
300 1 181.747559 2.836000 0.000000 # CA
301 1 184.203598 0.000000 0.000000 # CA
302 1 182.975586 0.709000 0.000000 # CA
303 1 182.975586 2.127000 0.000000 # CA
304 1 184.203598 2.836000 0.000000 # CA
305 1 186.659653 0.000000 0.000000 # CA
306 1 185.431625 0.709000 0.000000 # CA
307 1 185.431625 2.127000 0.000000 # CA
308 1 186.659653 2.836000 0.000000 # CA
309 1 189.115692 0.000000 0.000000 # CA
310 1 187.887680 0.709000 0.000000 # CA
311 1 187.887680 2.127000 0.000000 # CA
312 1 189.115692 2.836000 0.000000 # CA
313 1 191.571747 0.000000 0.000000 # CA
314 1 190.343719 0.709000 0.000000 # CA
315 1 190.343719 2.127000 0.000000 # CA
316 1 191.571747 2.836000 0.000000 # CA
317 1 194.027802 0.000000 0.000000 # CA
318 1 192.799774 0.709000 0.000000 # CA
319 1 192.799774 2.127000 0.000000 # CA
320 1 194.027802 2.836000 0.000000 # CA
321 1 196.483841 0.000000 0.000000 # CA
322 1 195.255814 0.709000 0.000000 # CA
323 1 195.255814 2.127000 0.000000 # CA
324 1 196.483841 2.836000 0.000000 # CA
325 1 198.939896 0.000000 0.000000 # CA
326 1 197.711868 0.709000 0.000000 # CA
327 1 197.711868 2.127000 0.000000 # CA
328 1 198.939896 2.836000 0.000000 # CA
329 1 201.395935 0.000000 0.000000 # CA
330 1 200.167923 0.709000 0.000000 # CA
331 1 200.167923 2.127000 0.000000 # CA
332 1 201.395935 2.836000 0.000000 # CA
333 1 203.851990 0.000000 0.000000 # CA
334 1 202.623962 0.709000 0.000000 # CA
335 1 202.623962 2.127000 0.000000 # CA
336 1 203.851990 2.836000 0.000000 # CA
337 1 206.308029 0.000000 0.000000 # CA
338 1 205.080017 0.709000 0.000000 # CA
339 1 205.080017 2.127000 0.000000 # CA
340 1 206.308029 2.836000 0.000000 # CA
341 1 208.764084 0.000000 0.000000 # CA
342 1 207.536057 0.709000 0.000000 # CA
343 1 207.536057 2.127000 0.000000 # CA
344 1 208.764084 2.836000 0.000000 # CA
345 1 211.220139 0.000000 0.000000 # CA
346 1 209.992111 0.709000 0.000000 # CA
347 1 209.992111 2.127000 0.000000 # CA
348 1 211.220139 2.836000 0.000000 # CA
349 1 213.676178 0.000000 0.000000 # CA
350 1 212.448151 0.709000 0.000000 # CA
351 1 212.448151 2.127000 0.000000 # CA
352 1 213.676178 2.836000 0.000000 # CA
353 1 216.132233 0.000000 0.000000 # CA
354 1 214.904205 0.709000 0.000000 # CA
355 1 214.904205 2.127000 0.000000 # CA
356 1 216.132233 2.836000 0.000000 # CA
357 1 218.588272 0.000000 0.000000 # CA
358 1 217.360245 0.709000 0.000000 # CA
359 1 217.360245 2.127000 0.000000 # CA
360 1 218.588272 2.836000 0.000000 # CA
361 1 221.044327 0.000000 0.000000 # CA
362 1 219.816299 0.709000 0.000000 # CA
363 1 219.816299 2.127000 0.000000 # CA
364 1 221.044327 2.836000 0.000000 # CA
365 1 223.500366 0.000000 0.000000 # CA
366 1 222.272354 0.709000 0.000000 # CA
367 1 222.272354 2.127000 0.000000 # CA
368 1 223.500366 2.836000 0.000000 # CA
369 1 225.956421 0.000000 0.000000 # CA
370 1 224.728394 0.709000 0.000000 # CA
371 1 224.728394 2.127000 0.000000 # CA
372 1 225.956421 2.836000 0.000000 # CA
373 1 228.412476 0.000000 0.000000 # CA
374 1 227.184448 0.709000 0.000000 # CA
375 1 227.184448 2.127000 0.000000 # CA
376 1 228.412476 2.836000 0.000000 # CA
377 1 230.868515 0.000000 0.000000 # CA
378 1 229.640488 0.709000 0.000000 # CA
379 1 229.640488 2.127000 0.000000 # CA
380 1 230.868515 2.836000 0.000000 # CA
381 1 233.324570 0.000000 0.000000 # CA
382 1 232.096542 0.709000 0.000000 # CA
383 1 232.096542 2.127000 0.000000 # CA
384 1 233.324570 2.836000 0.000000 # CA
385 1 235.780609 0.000000 0.000000 # CA
386 1 234.552582 0.709000 0.000000 # CA
387 1 234.552582 2.127000 0.000000 # CA
388 1 235.780609 2.836000 0.000000 # CA
389 1 238.236664 0.000000 0.000000 # CA
390 1 237.008636 0.709000 0.000000 # CA
391 1 237.008636 2.127000 0.000000 # CA
392 1 238.236664 2.836000 0.000000 # CA
393 1 240.692703 0.000000 0.000000 # CA
394 1 239.464691 0.709000 0.000000 # CA
395 1 239.464691 2.127000 0.000000 # CA
396 1 240.692703 2.836000 0.000000 # CA
397 1 243.148758 0.000000 0.000000 # CA
398 1 241.920731 0.709000 0.000000 # CA
399 1 241.920731 2.127000 0.000000 # CA
400 1 243.148758 2.836000 0.000000 # CA
401 1 245.604797 0.000000 0.000000 # CA
402 1 244.376785 0.709000 0.000000 # CA
403 1 244.376785 2.127000 0.000000 # CA
404 1 245.604797 2.836000 0.000000 # CA
405 1 248.060852 0.000000 0.000000 # CA
406 1 246.832825 0.709000 0.000000 # CA
407 1 246.832825 2.127000 0.000000 # CA
408 1 248.060852 2.836000 0.000000 # CA
409 1 250.516907 0.000000 0.000000 # CA
410 1 249.288879 0.709000 0.000000 # CA
411 1 249.288879 2.127000 0.000000 # CA
412 1 250.516907 2.836000 0.000000 # CA
413 1 252.972946 0.000000 0.000000 # CA
414 1 251.744919 0.709000 0.000000 # CA
415 1 251.744919 2.127000 0.000000 # CA
416 1 252.972946 2.836000 0.000000 # CA
417 1 255.429001 0.000000 0.000000 # CA
418 1 254.200974 0.709000 0.000000 # CA
419 1 254.200974 2.127000 0.000000 # CA
420 1 255.429001 2.836000 0.000000 # CA
421 1 257.885040 0.000000 0.000000 # CA
422 1 256.657013 0.709000 0.000000 # CA
423 1 256.657013 2.127000 0.000000 # CA
424 1 257.885040 2.836000 0.000000 # CA
425 1 260.341095 0.000000 0.000000 # CA
426 1 259.113068 0.709000 0.000000 # CA
427 1 259.113068 2.127000 0.000000 # CA
428 1 260.341095 2.836000 0.000000 # CA
429 1 262.797150 0.000000 0.000000 # CA
430 1 261.569122 0.709000 0.000000 # CA
431 1 261.569122 2.127000 0.000000 # CA
432 1 262.797150 2.836000 0.000000 # CA
433 1 265.253174 0.000000 0.000000 # CA
434 1 264.025177 0.709000 0.000000 # CA
435 1 264.025177 2.127000 0.000000 # CA
436 1 265.253174 2.836000 0.000000 # CA
437 1 267.709229 0.000000 0.000000 # CA
438 1 266.481201 0.709000 0.000000 # CA
439 1 266.481201 2.127000 0.000000 # CA
440 1 267.709229 2.836000 0.000000 # CA
441 1 270.165283 0.000000 0.000000 # CA
442 1 268.937256 0.709000 0.000000 # CA
443 1 268.937256 2.127000 0.000000 # CA
444 1 270.165283 2.836000 0.000000 # CA
445 1 272.621338 0.000000 0.000000 # CA
446 1 271.393311 0.709000 0.000000 # CA
447 1 271.393311 2.127000 0.000000 # CA
448 1 272.621338 2.836000 0.000000 # CA
449 1 275.077393 0.000000 0.000000 # CA
450 1 273.849365 0.709000 0.000000 # CA
451 1 273.849365 2.127000 0.000000 # CA
452 1 275.077393 2.836000 0.000000 # CA
453 1 277.533417 0.000000 0.000000 # CA
454 1 276.305420 0.709000 0.000000 # CA
455 1 276.305420 2.127000 0.000000 # CA
456 1 277.533417 2.836000 0.000000 # CA
457 1 279.989471 0.000000 0.000000 # CA
458 1 278.761444 0.709000 0.000000 # CA
459 1 278.761444 2.127000 0.000000 # CA
460 1 279.989471 2.836000 0.000000 # CA
461 1 282.445526 0.000000 0.000000 # CA
462 1 281.217499 0.709000 0.000000 # CA
463 1 281.217499 2.127000 0.000000 # CA
464 1 282.445526 2.836000 0.000000 # CA
465 1 284.901581 0.000000 0.000000 # CA
466 1 283.673553 0.709000 0.000000 # CA
467 1 283.673553 2.127000 0.000000 # CA
468 1 284.901581 2.836000 0.000000 # CA
469 1 287.357635 0.000000 0.000000 # CA
470 1 286.129608 0.709000 0.000000 # CA
471 1 286.129608 2.127000 0.000000 # CA
472 1 287.357635 2.836000 0.000000 # CA
473 1 289.813660 0.000000 0.000000 # CA
474 1 288.585632 0.709000 0.000000 # CA
475 1 288.585632 2.127000 0.000000 # CA
476 1 289.813660 2.836000 0.000000 # CA
477 1 292.269714 0.000000 0.000000 # CA
478 1 291.041687 0.709000 0.000000 # CA
479 1 291.041687 2.127000 0.000000 # CA
480 1 292.269714 2.836000 0.000000 # CA
481 1 294.725769 0.000000 0.000000 # CA
482 1 293.497742 0.709000 0.000000 # CA
483 1 293.497742 2.127000 0.000000 # CA
484 1 294.725769 2.836000 0.000000 # CA
485 1 297.181824 0.000000 0.000000 # CA
486 1 295.953796 0.709000 0.000000 # CA
487 1 295.953796 2.127000 0.000000 # CA
488 1 297.181824 2.836000 0.000000 # CA
489 1 299.637848 0.000000 0.000000 # CA
490 1 298.409851 0.709000 0.000000 # CA
491 1 298.409851 2.127000 0.000000 # CA
492 1 299.637848 2.836000 0.000000 # CA
493 1 302.093903 0.000000 0.000000 # CA
494 1 300.865875 0.709000 0.000000 # CA
495 1 300.865875 2.127000 0.000000 # CA
496 1 302.093903 2.836000 0.000000 # CA
497 1 304.549957 0.000000 0.000000 # CA
498 1 303.321930 0.709000 0.000000 # CA
499 1 303.321930 2.127000 0.000000 # CA
500 1 304.549957 2.836000 0.000000 # CA
501 1 307.006012 0.000000 0.000000 # CA
502 1 305.777985 0.709000 0.000000 # CA
503 1 305.777985 2.127000 0.000000 # CA
504 1 307.006012 2.836000 0.000000 # CA
505 1 309.462067 0.000000 0.000000 # CA
506 1 308.234039 0.709000 0.000000 # CA
507 1 308.234039 2.127000 0.000000 # CA
508 1 309.462067 2.836000 0.000000 # CA
509 1 311.918091 0.000000 0.000000 # CA
510 1 310.690063 0.709000 0.000000 # CA
511 1 310.690063 2.127000 0.000000 # CA
512 1 311.918091 2.836000 0.000000 # CA
513 1 314.374146 0.000000 0.000000 # CA
514 1 313.146118 0.709000 0.000000 # CA
515 1 313.146118 2.127000 0.000000 # CA
516 1 314.374146 2.836000 0.000000 # CA
517 1 316.830200 0.000000 0.000000 # CA
518 1 315.602173 0.709000 0.000000 # CA
519 1 315.602173 2.127000 0.000000 # CA
520 1 316.830200 2.836000 0.000000 # CA
521 1 319.286255 0.000000 0.000000 # CA
522 1 318.058228 0.709000 0.000000 # CA
523 1 318.058228 2.127000 0.000000 # CA
524 1 319.286255 2.836000 0.000000 # CA
525 1 321.742279 0.000000 0.000000 # CA
526 1 320.514282 0.709000 0.000000 # CA
527 1 320.514282 2.127000 0.000000 # CA
528 1 321.742279 2.836000 0.000000 # CA
529 1 324.198334 0.000000 0.000000 # CA
530 1 322.970306 0.709000 0.000000 # CA
531 1 322.970306 2.127000 0.000000 # CA
532 1 324.198334 2.836000 0.000000 # CA
533 1 326.654388 0.000000 0.000000 # CA
534 1 325.426361 0.709000 0.000000 # CA
535 1 325.426361 2.127000 0.000000 # CA
536 1 326.654388 2.836000 0.000000 # CA
537 1 329.110443 0.000000 0.000000 # CA
538 1 327.882416 0.709000 0.000000 # CA
539 1 327.882416 2.127000 0.000000 # CA
540 1 329.110443 2.836000 0.000000 # CA
541 1 331.566498 0.000000 0.000000 # CA
542 1 330.338470 0.709000 0.000000 # CA
543 1 330.338470 2.127000 0.000000 # CA
544 1 331.566498 2.836000 0.000000 # CA
545 1 334.022522 0.000000 0.000000 # CA
546 1 332.794525 0.709000 0.000000 # CA
547 1 332.794525 2.127000 0.000000 # CA
548 1 334.022522 2.836000 0.000000 # CA
549 1 336.478577 0.000000 0.000000 # CA
550 1 335.250549 0.709000 0.000000 # CA
551 1 335.250549 2.127000 0.000000 # CA
552 1 336.478577 2.836000 0.000000 # CA
553 1 338.934631 0.000000 0.000000 # CA
554 1 337.706604 0.709000 0.000000 # CA
555 1 337.706604 2.127000 0.000000 # CA
556 1 338.934631 2.836000 0.000000 # CA
557 1 341.390686 0.000000 0.000000 # CA
558 1 340.162659 0.709000 0.000000 # CA
559 1 340.162659 2.127000 0.000000 # CA
560 1 341.390686 2.836000 0.000000 # CA
561 1 343.846741 0.000000 0.000000 # CA
562 1 342.618713 0.709000 0.000000 # CA
563 1 342.618713 2.127000 0.000000 # CA
564 1 343.846741 2.836000 0.000000 # CA
565 1 346.302765 0.000000 0.000000 # CA
566 1 345.074738 0.709000 0.000000 # CA
567 1 345.074738 2.127000 0.000000 # CA
568 1 346.302765 2.836000 0.000000 # CA
569 1 348.758820 0.000000 0.000000 # CA
570 1 347.530792 0.709000 0.000000 # CA
571 1 347.530792 2.127000 0.000000 # CA
572 1 348.758820 2.836000 0.000000 # CA
573 1 351.214874 0.000000 0.000000 # CA
574 1 349.986847 0.709000 0.000000 # CA
575 1 349.986847 2.127000 0.000000 # CA
576 1 351.214874 2.836000 0.000000 # CA
577 1 353.670929 0.000000 0.000000 # CA
578 1 352.442902 0.709000 0.000000 # CA
579 1 352.442902 2.127000 0.000000 # CA
580 1 353.670929 2.836000 0.000000 # CA
581 1 356.126953 0.000000 0.000000 # CA
582 1 354.898956 0.709000 0.000000 # CA
583 1 354.898956 2.127000 0.000000 # CA
584 1 356.126953 2.836000 0.000000 # CA
585 1 358.583008 0.000000 0.000000 # CA
586 1 357.354980 0.709000 0.000000 # CA
587 1 357.354980 2.127000 0.000000 # CA
588 1 358.583008 2.836000 0.000000 # CA
589 1 361.039063 0.000000 0.000000 # CA
590 1 359.811035 0.709000 0.000000 # CA
591 1 359.811035 2.127000 0.000000 # CA
592 1 361.039063 2.836000 0.000000 # CA
593 1 363.495117 0.000000 0.000000 # CA
594 1 362.267090 0.709000 0.000000 # CA
595 1 362.267090 2.127000 0.000000 # CA
596 1 363.495117 2.836000 0.000000 # CA
597 1 365.951172 0.000000 0.000000 # CA
598 1 364.723145 0.709000 0.000000 # CA
599 1 364.723145 2.127000 0.000000 # CA
600 1 365.951172 2.836000 0.000000 # CA
601 1 368.407196 0.000000 0.000000 # CA
602 1 367.179169 0.709000 0.000000 # CA
603 1 367.179169 2.127000 0.000000 # CA
604 1 368.407196 2.836000 0.000000 # CA
605 1 370.863251 0.000000 0.000000 # CA
606 1 369.635223 0.709000 0.000000 # CA
607 1 369.635223 2.127000 0.000000 # CA
608 1 370.863251 2.836000 0.000000 # CA
609 1 373.319305 0.000000 0.000000 # CA
610 1 372.091278 0.709000 0.000000 # CA
611 1 372.091278 2.127000 0.000000 # CA
612 1 373.319305 2.836000 0.000000 # CA
613 1 375.775360 0.000000 0.000000 # CA
614 1 374.547333 0.709000 0.000000 # CA
615 1 374.547333 2.127000 0.000000 # CA
616 1 375.775360 2.836000 0.000000 # CA
617 1 378.231384 0.000000 0.000000 # CA
618 1 377.003387 0.709000 0.000000 # CA
619 1 377.003387 2.127000 0.000000 # CA
620 1 378.231384 2.836000 0.000000 # CA
621 1 380.687439 0.000000 0.000000 # CA
622 1 379.459412 0.709000 0.000000 # CA
623 1 379.459412 2.127000 0.000000 # CA
624 1 380.687439 2.836000 0.000000 # CA
625 1 383.143494 0.000000 0.000000 # CA
626 1 381.915466 0.709000 0.000000 # CA
627 1 381.915466 2.127000 0.000000 # CA
628 1 383.143494 2.836000 0.000000 # CA
629 1 385.599548 0.000000 0.000000 # CA
630 1 384.371521 0.709000 0.000000 # CA
631 1 384.371521 2.127000 0.000000 # CA
632 1 385.599548 2.836000 0.000000 # CA
633 1 388.055603 0.000000 0.000000 # CA
634 1 386.827576 0.709000 0.000000 # CA
635 1 386.827576 2.127000 0.000000 # CA
636 1 388.055603 2.836000 0.000000 # CA
637 1 390.511627 0.000000 0.000000 # CA
638 1 389.283630 0.709000 0.000000 # CA
639 1 389.283630 2.127000 0.000000 # CA
640 1 390.511627 2.836000 0.000000 # CA
641 1 392.967682 0.000000 0.000000 # CA
642 1 391.739655 0.709000 0.000000 # CA
643 1 391.739655 2.127000 0.000000 # CA
644 1 392.967682 2.836000 0.000000 # CA
645 1 395.423737 0.000000 0.000000 # CA
646 1 394.195709 0.709000 0.000000 # CA
647 1 394.195709 2.127000 0.000000 # CA
648 1 395.423737 2.836000 0.000000 # CA
649 1 397.879791 0.000000 0.000000 # CA
650 1 396.651764 0.709000 0.000000 # CA
651 1 396.651764 2.127000 0.000000 # CA
652 1 397.879791 2.836000 0.000000 # CA
653 1 400.335846 0.000000 0.000000 # CA
654 1 399.107819 0.709000 0.000000 # CA
655 1 399.107819 2.127000 0.000000 # CA
656 1 400.335846 2.836000 0.000000 # CA
657 1 402.791870 0.000000 0.000000 # CA
658 1 401.563843 0.709000 0.000000 # CA
659 1 401.563843 2.127000 0.000000 # CA
660 1 402.791870 2.836000 0.000000 # CA
661 1 405.247925 0.000000 0.000000 # CA
662 1 404.019897 0.709000 0.000000 # CA
663 1 404.019897 2.127000 0.000000 # CA
664 1 405.247925 2.836000 0.000000 # CA
665 1 407.703979 0.000000 0.000000 # CA
666 1 406.475952 0.709000 0.000000 # CA
667 1 406.475952 2.127000 0.000000 # CA
668 1 407.703979 2.836000 0.000000 # CA
669 1 410.160034 0.000000 0.000000 # CA
670 1 408.932007 0.709000 0.000000 # CA
671 1 408.932007 2.127000 0.000000 # CA
672 1 410.160034 2.836000 0.000000 # CA
673 1 412.616058 0.000000 0.000000 # CA
674 1 411.388062 0.709000 0.000000 # CA
675 1 411.388062 2.127000 0.000000 # CA
676 1 412.616058 2.836000 0.000000 # CA
677 1 415.072113 0.000000 0.000000 # CA
678 1 413.844086 0.709000 0.000000 # CA
679 1 413.844086 2.127000 0.000000 # CA
680 1 415.072113 2.836000 0.000000 # CA
681 1 417.528168 0.000000 0.000000 # CA
682 1 416.300140 0.709000 0.000000 # CA
683 1 416.300140 2.127000 0.000000 # CA
684 1 417.528168 2.836000 0.000000 # CA
685 1 419.984222 0.000000 0.000000 # CA
686 1 418.756195 0.709000 0.000000 # CA
687 1 418.756195 2.127000 0.000000 # CA
688 1 419.984222 2.836000 0.000000 # CA
689 1 422.440277 0.000000 0.000000 # CA
690 1 421.212250 0.709000 0.000000 # CA
691 1 421.212250 2.127000 0.000000 # CA
692 1 422.440277 2.836000 0.000000 # CA
693 1 424.896301 0.000000 0.000000 # CA
694 1 423.668274 0.709000 0.000000 # CA
695 1 423.668274 2.127000 0.000000 # CA
696 1 424.896301 2.836000 0.000000 # CA
697 1 427.352356 0.000000 0.000000 # CA
698 1 426.124329 0.709000 0.000000 # CA
699 1 426.124329 2.127000 0.000000 # CA
700 1 427.352356 2.836000 0.000000 # CA
701 1 429.808411 0.000000 0.000000 # CA
702 1 428.580383 0.709000 0.000000 # CA
703 1 428.580383 2.127000 0.000000 # CA
704 1 429.808411 2.836000 0.000000 # CA
705 1 432.264465 0.000000 0.000000 # CA
706 1 431.036438 0.709000 0.000000 # CA
707 1 431.036438 2.127000 0.000000 # CA
708 1 432.264465 2.836000 0.000000 # CA
709 1 434.720490 0.000000 0.000000 # CA
710 1 433.492493 0.709000 0.000000 # CA
711 1 433.492493 2.127000 0.000000 # CA
712 1 434.720490 2.836000 0.000000 # CA
713 1 437.176544 0.000000 0.000000 # CA
714 1 435.948517 0.709000 0.000000 # CA
715 1 435.948517 2.127000 0.000000 # CA
716 1 437.176544 2.836000 0.000000 # CA
717 1 439.632599 0.000000 0.000000 # CA
718 1 438.404572 0.709000 0.000000 # CA
719 1 438.404572 2.127000 0.000000 # CA
720 1 439.632599 2.836000 0.000000 # CA
721 1 442.088654 0.000000 0.000000 # CA
722 1 440.860626 0.709000 0.000000 # CA
723 1 440.860626 2.127000 0.000000 # CA
724 1 442.088654 2.836000 0.000000 # CA
725 1 444.544708 0.000000 0.000000 # CA
726 1 443.316681 0.709000 0.000000 # CA
727 1 443.316681 2.127000 0.000000 # CA
728 1 444.544708 2.836000 0.000000 # CA