LAMMPS (17 Apr 2024)
OMP_NUM_THREADS environment is not set. Defaulting to 1 thread. (src/comm.cpp:98)
  using 1 OpenMP thread(s) per MPI task
Loaded 1 plugins from C:\Users\titi-\AppData\Local\LAMMPS 64-bit 17Apr2024 with Python\plugins
package gpu 0
echo both
#模型基本设置
units             metal
dimension         3
newton            on
boundary          p p p
atom_style        atomic
neighbor          0.3 bin
#模拟步长0.5fs
timestep          0.0005
#读取data文件
read_data        gp.data
Reading data file ...
  orthogonal box = (-1.325127 -0.184999 -250) to (498.67487 49.815001 250)
  1 by 1 by 1 MPI processor grid
  reading atoms ...
  9792 atoms
  read_data CPU = 0.038 seconds
replicate 5 1 1
Replication is creating a 5x1x1 = 5 times larger system...
  orthogonal box = (-1.325127 -0.184999 -250) to (2498.6749 49.815001 250)
  1 by 1 by 1 MPI processor grid
  48960 atoms
  replicate CPU = 0.003 seconds
#力场设置
pair_style       tersoff/gpu
pair_coeff       * * C.tersoff C
Reading tersoff potential file C.tersoff with DATE: 2013-03-21

#计算温度
compute       ke1  all  ke/atom
variable      kb  equal 8.625e-5
variable      temp1 atom  c_ke1/1.5/${kb}
variable      temp1 atom  c_ke1/1.5/8.625e-05
#热力学量输出
thermo        1000
thermo_style  custom    step    temp   pxx pyy pzz press  vol
#温度初始化
velocity    all create 300 898758 mom yes rot yes dist gaussian
#能量最小化
min_style       cg
minimize        1.0e-8 1.0e-8 1000000 1000000

CITE-CITE-CITE-CITE-CITE-CITE-CITE-CITE-CITE-CITE-CITE-CITE-CITE

Your simulation uses code contributions which should be cited:

- GPU package (short-range, long-range and three-body potentials): doi:10.1016/j.cpc.2010.12.021, doi:10.1016/j.cpc.2011.10.012, doi:10.1016/j.cpc.2013.08.002, doi:10.1016/j.commatsci.2014.10.068, doi:10.1016/j.cpc.2016.10.020, doi:10.3233/APC200086

@Article{Brown11,
 author = {W. M. Brown and P. Wang and S. J. Plimpton and A. N. Tharrington},
 title = {Implementing Molecular Dynamics on Hybrid High Performance Computers---Short Range Forces},
 journal = {Comput.\ Phys.\ Commun.},
 year =    2011,
 volume =  182,
 pages =   {898--911},
 doi =     {10.1016/j.cpc.2010.12.021}
}

@Article{Brown12,
 author = {W. M. Brown and A. Kohlmeyer and S. J. Plimpton and A. N. Tharrington},
 title = {Implementing Molecular Dynamics on Hybrid High Performance Computers - Particle-Particle Particle-Mesh},
 journal = {Comput.\ Phys.\ Commun.},
 year =    2012,
 volume =  183,
 doi =     {10.1016/j.cpc.2011.10.012},
 pages =   {449--459}
}

@Article{Brown13,
 author = {W. M. Brown and Y. Masako},
 title = {Implementing Molecular Dynamics on Hybrid High Performance Computers---Three-Body Potentials},
 journal = {Comput.\ Phys.\ Commun.},
 year =    2013,
 volume =  184,
 pages =   {2785--2793},
 doi =     {10.1016/j.cpc.2013.08.002},
}

@Article{Trung15,
 author = {T. D. Nguyen and S. J. Plimpton},
 title = {Accelerating Dissipative Particle Dynamics Simulations for Soft Matter Systems},
 journal = {Comput.\ Mater.\ Sci.},
 year =    2015,
 doi =     {10.1016/j.commatsci.2014.10.068},
 volume =  100,
 pages =   {173--180}
}

@Article{Trung17,
 author = {T. D. Nguyen},
 title = {{GPU}-Accelerated {T}ersoff Potentials for Massively Parallel
    Molecular Dynamics Simulations},
 journal = {Comput.\ Phys.\ Commun.},
 year =    2017,
 doi =     {10.1016/j.cpc.2016.10.020},
 volume =  212,
 pages =   {113--122}
}

@inproceedings{Nikolskiy19,
 author = {V. Nikolskiy and V. Stegailov},
 title = {{GPU} Acceleration of Four-Site Water Models in {LAMMPS}},
 booktitle = {Proceedings of the International Conference on Parallel
    Computing (ParCo 2019), Prague, Czech Republic},
 doi =     {10.3233/APC200086},
 year =    2019
}

CITE-CITE-CITE-CITE-CITE-CITE-CITE-CITE-CITE-CITE-CITE-CITE-CITE

WARNING: Increasing communication cutoff to 4.5 for GPU pair style (src/GPU/pair_tersoff_gpu.cpp:228)
Per MPI rank memory allocation (min/avg/max) = 14.64 | 14.64 | 14.64 Mbytes
   Step          Temp           Pxx            Pyy            Pzz           Press          Volume    
         0   300            3621.9948      14161.66       32.807237      5938.8206      62500000     
       394   300            1577.9775      2926.7351      32.807237      1512.5066      62500000     
Loop time of 1.17577 on 1 procs for 394 steps with 48960 atoms

59.8% CPU use with 1 MPI tasks x 1 OpenMP threads

Minimization stats:
  Stopping criterion = energy tolerance
  Energy initial, next-to-last, final = 
     -46431.1007648557  -388138.650758982  -388138.654114008
  Force two-norm initial, final = 51429.316 1.9936454
  Force max component initial, final = 1158.6904 0.051407492
  Final line search alpha, max atom move = 1 0.051407492
  Iterations, force evaluations = 394 767

MPI task timing breakdown:
Section |  min time  |  avg time  |  max time  |%varavg| %total
---------------------------------------------------------------
Pair    | 0.64225    | 0.64225    | 0.64225    |   0.0 | 54.62
Neigh   | 0.00133    | 0.00133    | 0.00133    |   0.0 |  0.11
Comm    | 0.030172   | 0.030172   | 0.030172   |   0.0 |  2.57
Output  | 0          | 0          | 0          |   0.0 |  0.00
Modify  | 7.2e-05    | 7.2e-05    | 7.2e-05    |   0.0 |  0.01
Other   |            | 0.5019     |            |       | 42.69

Nlocal:          48960 ave       48960 max       48960 min
Histogram: 1 0 0 0 0 0 0 0 0 0
Nghost:           8384 ave        8384 max        8384 min
Histogram: 1 0 0 0 0 0 0 0 0 0
Neighs:              0 ave           0 max           0 min
Histogram: 1 0 0 0 0 0 0 0 0 0

Total # of neighbors = 0
Ave neighs/atom = 0
Neighbor list builds = 20
Dangerous builds = 0
#npt系综下弛豫
thermo     2000
thermo_style   custom step temp pe ke etotal vol pxx pyy pzz press
fix         1 all npt temp 300 300 0.05 iso 0.0 0.0 0.5
dump        1 all custom 100000 npt.xyz id type x y z
run         200000
Per MPI rank memory allocation (min/avg/max) = 10.14 | 10.14 | 10.14 Mbytes
   Step          Temp          PotEng         KinEng         TotEng         Volume          Pxx            Pyy            Pzz           Press     
       394   300           -388138.65      1898.5342     -386240.12      62500000       1577.9775      2926.7351      32.807237      1512.5066    
      2000   297.40727     -388537.95      1882.1263     -386655.82      66797291      -386.25553      380.95621      0.25388844    -1.6818105    
      4000   299.36606     -388594.45      1894.5224     -386699.92      65816047      -131.61757      133.52637     -2.0475704     -0.046257444  
      6000   301.46503     -388614.61      1907.8056     -386706.8       65769760      -127.86802      128.76786      0.66975485     0.52319932   
      8000   299.56082     -388619.78      1895.7549     -386724.03      65744286      -142.22265      136.59385      0.54975086    -1.693019     
     10000   299.52145     -388609.12      1895.5057     -386713.62      65752933      -121.00562      114.63343     -0.43119084    -2.2677956    
     12000   299.40846     -388618.45      1894.7907     -386723.66      65733609      -105.38612      100.56192     -0.76182916    -1.8620099    
     14000   299.19386     -388613.66      1893.4326     -386720.23      65754611      -125.72417      128.55829     -0.28256093     0.85051988   
     16000   301.10735     -388598.89      1905.542      -386693.34      65780423      -128.20343      134.81482     -0.61926185     1.9973735    
     18000   300.60289     -388631.3       1902.3496     -386728.95      65675567      -96.792863      112.47075      0.26858083     5.3154878    
     20000   297.84767     -388611.19      1884.9133     -386726.28      65791053      -137.02472      143.07064      0.53011397     2.1920132    
     22000   300.39791     -388608.06      1901.0524     -386707.01      65700800      -94.299915      99.152468     -0.8176182      1.3449785    
     24000   300.66825     -388606.13      1902.7632     -386703.36      65851534      -151.11634      143.30586      0.48998694    -2.4401626    
     26000   299.75852     -388616.05      1897.006      -386719.05      65747299      -124.50123      119.77154      0.063057186   -1.555546     
     28000   297.57285     -388627.84      1883.1741     -386744.66      65797463      -122.9583       109.58858      0.25142955    -4.3727637    
     30000   299.25716     -388605.59      1893.8332     -386711.76      65817625      -128.96295      119.86636      0.14614437    -2.9834818    
     32000   299.23019     -388597.18      1893.6626     -386703.51      65767243      -118.55408      115.00852      0.024807396   -1.1735841    
     34000   301.21407     -388619.27      1906.2174     -386713.05      65781988      -115.21792      119.06507      0.12444684     1.3238662    
     36000   299.60822     -388616.11      1896.0549     -386720.06      65744750      -100.1767       113.35884      0.060189088    4.414109     
     38000   301.6543      -388613.67      1909.0034     -386704.67      65850474      -123.97248      139.23429      0.61268919     5.2914975    
     40000   299.74908     -388587.82      1896.9463     -386690.88      65761308      -103.90494      102.47793     -1.0950695     -0.84069381   
     42000   300.87438     -388614.95      1904.0677     -386710.88      65857302      -126.39094      112.36491     -0.23830464    -4.7547768    
     44000   301.01364     -388609.78      1904.949      -386704.83      65800216      -112.97698      110.28029     -0.066088997   -0.92092636   
     46000   299.69541     -388618.84      1896.6066     -386722.23      65790720      -113.89702      118.88668      0.028605018    1.6727525    
     48000   301.36697     -388621.62      1907.185      -386714.43      65820225      -108.49802      124.43554      0.56445989     5.5006619    
     50000   299.38699     -388615.22      1894.6548     -386720.57      65824019      -112.98727      109.50557     -0.15399632    -1.2119003    
     52000   298.04485     -388602.14      1886.1612     -386715.98      65802537      -109.26452      109.6819      -0.35449854     0.020959103  
     54000   300.1124      -388605.18      1899.2455     -386705.93      65781450      -105.0506       103.1864      -0.85321906    -0.90580721   
     56000   298.64261     -388604.03      1889.9441     -386714.09      65866022      -125.62114      106.3771      -0.85837236    -6.7008041    
     58000   298.1346      -388603.98      1886.7291     -386717.25      65782622      -98.109272      106.80353     -0.55330278     2.7136506    
     60000   299.63743     -388610.08      1896.2397     -386713.84      65828441      -109.91901      116.50843      0.35372525     2.3143847    
     62000   299.53236     -388602.62      1895.5748     -386707.04      65750283      -88.062898      99.44231      -0.43687933     3.6475108    
     64000   300.49807     -388607.77      1901.6863     -386706.08      65880329      -122.64437      120.06024      0.60597336    -0.65938355   
     66000   300.70123     -388607.53      1902.9719     -386704.56      65820774      -102.18289      92.008594     -1.1109618     -3.7617531    
     68000   300.39087     -388613.41      1901.0078     -386712.4       65870871      -121.17423      113.71272      0.10076324    -2.4535829    
     70000   298.80323     -388606.22      1890.9605     -386715.26      65842656      -99.244967      101.98485      0.60246905     1.1141188    
     72000   299.14417     -388602.06      1893.1182     -386708.94      65875381      -119.8028       120.22398     -0.40783147     0.0044490261 
     74000   301.58818     -388617.59      1908.585      -386709         65865868      -119.44785      108.44952      0.44268617    -3.5185474    
     76000   299.43999     -388599.98      1894.9902     -386704.99      65826770      -112.2634       118.39912     -0.73777282     1.7993183    
     78000   301.75792     -388613.2       1909.6591     -386703.55      65839672      -106.07777      108.83781      0.21102712     0.99035658   
     80000   301.73162     -388601.56      1909.4927     -386692.07      65812523      -105.63343      106.14543     -0.18577661     0.10874051   
     82000   298.89023     -388608.92      1891.5111     -386717.41      65878567      -118.17966      101.28064      0.34246959    -5.5188474    
     84000   298.52499     -388613.23      1889.1997     -386724.03      65835503      -111.03879      107.8143       0.13851771    -1.0286566    
     86000   298.27104     -388598.96      1887.5926     -386711.37      65872368      -108.49641      108.95945     -0.11027679     0.11758955   
     88000   299.81809     -388613.5       1897.383      -386716.12      65863688      -115.16603      110.48727     -0.11308465    -1.5972802    
     90000   300.99958     -388601.68      1904.86       -386696.82      65879421      -121.02851      117.88343     -0.0010721428  -1.0487173    
     92000   298.2149      -388609.76      1887.2373     -386722.53      65852537      -107.27433      105.68311      0.48386719    -0.3691188    
     94000   300.10505     -388609.77      1899.199      -386710.57      65832142      -97.80438       108.84145      0.27203638     3.7697029    
     96000   299.2625      -388610.66      1893.867      -386716.79      65852995      -105.86542      114.64827     -0.35352028     2.8097764    
     98000   300.00349     -388608.38      1898.5563     -386709.83      65818221      -100.6307       100.17624     -0.93555307    -0.46333517   
    100000   300.21379     -388607.73      1899.8872     -386707.84      65865418      -109.33918      120.8228       0.046360499    3.8433299    
    102000   302.55358     -388608.07      1914.6944     -386693.38      65799298      -96.726703      113.71336     -0.025406391    5.6537509    
    104000   299.17226     -388613.21      1893.2959     -386719.91      65871775      -108.31658      104.77119      0.2305418     -1.104951     
    106000   299.03363     -388613.77      1892.4186     -386721.35      65869509      -121.3208       124.01894     -0.68368279     0.67148612   
    108000   302.40256     -388604.56      1913.7387     -386690.82      65865657      -110.29336      123.62597      0.467554       4.6000548    
    110000   298.99022     -388613.5       1892.1439     -386721.36      65849528      -100.03503      103.34218     -0.17123624     1.045305     
    112000   300.58477     -388590.5       1902.2349     -386688.27      65912498      -118.6397       119.23764     -0.084357461    0.17119467   
    114000   298.52841     -388611.83      1889.2213     -386722.61      65839355      -91.677082      88.403276     -0.32197931    -1.1985952    
    116000   301.31934     -388602.34      1906.8836     -386695.45      65944044      -117.32101      101.8396      -0.14067147    -5.2073579    
    118000   299.1984      -388605.72      1893.4613     -386712.26      65845979      -94.838529      85.847637     -0.88771893    -3.2928701    
    120000   298.20841     -388607.69      1887.1963     -386720.49      65901533      -115.43062      114.33681     -0.39987551    -0.4978928    
    122000   300.49991     -388610.92      1901.6979     -386709.22      65849620      -93.377198      102.39766      0.34071292     3.1203916    
    124000   300.76374     -388607.89      1903.3675     -386704.52      65902524      -111.69544      122.51306      0.54993771     3.7891851    
    126000   300.97757     -388600.95      1904.7207     -386696.23      65906330      -113.02518      103.89477     -0.52683341    -3.2190805    
    128000   298.76922     -388606.93      1890.7453     -386716.19      65927505      -122.86864      105.56624     -0.77164266    -6.0246806    
    130000   299.75104     -388604.39      1896.9587     -386707.43      65864769      -103.18277      98.617208     -0.30572308    -1.6237616    
    132000   300.18279     -388600.29      1899.691      -386700.6       65904656      -115.16448      110.46727     -0.0034813111  -1.5668996    
    134000   300.50105     -388608.34      1901.7051     -386706.63      65851033      -99.582001      107.34296     -0.48300866     2.4259834    
    136000   301.79302     -388609.79      1909.8813     -386699.91      65857841      -89.941353      105.20136     -0.075576053    5.0614779    
    138000   300.6295      -388621.34      1902.518      -386718.82      65898563      -101.31232      106.6024       0.73421695     2.0080982    
    140000   298.90975     -388616.94      1891.6346     -386725.3       65920088      -95.336347      97.072967     -0.71146429     0.34171858   
    142000   300.3227      -388629.49      1900.5764     -386728.91      65922689      -108.38205      103.7269       0.63739082    -1.3392522    
    144000   301.01639     -388597.93      1904.9664     -386692.97      65893587      -100.9617       101.41939     -0.72449885    -0.088934204  
    146000   299.86426     -388606.54      1897.6752     -386708.87      65882229      -92.528155      103.14492     -0.41340993     3.4011181    
    148000   298.66072     -388616.33      1890.0587     -386726.27      65877321      -93.095648      104.50327      0.32968635     3.9124351    
    150000   298.84418     -388610.89      1891.2197     -386719.67      65895430      -106.37065      123.99281      0.83153525     6.1512327    
    152000   298.22005     -388618.99      1887.2699     -386731.72      65857173      -97.251299      102.89516      0.014257728    1.8860401    
    154000   296.98995     -388605.85      1879.4853     -386726.36      65912453      -121.0673       119.84122     -0.34367712    -0.52325341   
    156000   299.73034     -388601.03      1896.8277     -386704.2       65915947      -112.58074      96.535036     -0.99051859    -5.6787416    
    158000   297.51433     -388601.04      1882.8038     -386718.24      65886877      -107.59041      92.789613     -1.5646752     -5.455159     
    160000   301.06237     -388625.41      1905.2574     -386720.16      65905317      -103.8466       105.43824      0.78093228     0.79085579   
    162000   299.96195     -388611.59      1898.2934     -386713.29      65899698      -97.706976      100.70921      0.047788185    1.0166743    
    164000   299.88323     -388612.72      1897.7953     -386714.92      65892214      -102.14455      104.74691      0.25490872     0.95242337   
    166000   299.1598      -388609.91      1893.217      -386716.7       65897297      -102.50416      108.89733      0.42619724     2.2731221    
    168000   299.63931     -388602.49      1896.2516     -386706.24      65878013      -91.650093      107.9747       0.2318795      5.5188294    
    170000   300.17299     -388598.51      1899.629      -386698.88      65931361      -110.55772      118.27717      0.20156548     2.6403389    
    172000   300.59435     -388595.09      1902.2955     -386692.79      65894640      -102.48979      97.601932     -0.42133188    -1.7697306    
    174000   298.7961      -388608.72      1890.9154     -386717.81      65965704      -124.0373       111.56365     -0.67705385    -4.3835666    
    176000   299.92211     -388607.56      1898.0413     -386709.52      65869775      -96.748831      92.040255     -0.96064663    -1.889741     
    178000   297.80437     -388601.52      1884.6393     -386716.88      65928376      -113.04656      111.45916     -0.20175142    -0.59638329   
    180000   298.7369      -388608.07      1890.5407     -386717.53      65904134      -109.34731      113.1329      -0.062115138    1.2411602    
    182000   300.50407     -388597.2       1901.7242     -386695.47      65875001      -95.919034      105.04353     -0.11003911     3.0048188    
    184000   299.67644     -388602.6       1896.4866     -386706.12      65895884      -95.226383      109.09626     -0.41231967     4.4858538    
    186000   300.33614     -388603.95      1900.6615     -386703.29      65922068      -103.2755       114.06028      0.75958682     3.8481209    
    188000   300.05959     -388595.52      1898.9113     -386696.61      65898835      -98.689997      111.03251     -0.18727307     4.0517455    
    190000   301.14056     -388608.31      1905.7522     -386702.56      65926503      -106.32762      103.13764      0.7421796     -0.8159336    
    192000   299.67925     -388612.81      1896.5044     -386716.31      65956237      -111.57364      98.14707      -0.46138594    -4.6293174    
    194000   299.13848     -388617.06      1893.0821     -386723.97      65910097      -103.57041      98.787462     -0.37850796    -1.720486     
    196000   299.61305     -388609.73      1896.0854     -386713.64      65915455      -99.968319      111.67405      0.52274636     4.0761602    
    198000   300.59033     -388603.73      1902.2701     -386701.46      65879921      -96.724862      108.11982      0.50283605     3.9659324    
    200000   299.59915     -388606.81      1895.9975     -386710.81      65912874      -106.46713      110.92943     -0.23617899     1.4087069    
    200394   301.09022     -388599.71      1905.4336     -386694.27      65917363      -109.02669      103.62148     -0.29359531    -1.8996003    
Loop time of 590.992 on 1 procs for 200000 steps with 48960 atoms

Performance: 14.619 ns/day, 1.642 hours/ns, 338.414 timesteps/s, 16.569 Matom-step/s
61.4% CPU use with 1 MPI tasks x 1 OpenMP threads

MPI task timing breakdown:
Section |  min time  |  avg time  |  max time  |%varavg| %total
---------------------------------------------------------------
Pair    | 341.46     | 341.46     | 341.46     |   0.0 | 57.78
Neigh   | 1.2007     | 1.2007     | 1.2007     |   0.0 |  0.20
Comm    | 20.294     | 20.294     | 20.294     |   0.0 |  3.43
Output  | 0.16417    | 0.16417    | 0.16417    |   0.0 |  0.03
Modify  | 202.62     | 202.62     | 202.62     |   0.0 | 34.28
Other   |            | 25.25      |            |       |  4.27

Nlocal:          48960 ave       48960 max       48960 min
Histogram: 1 0 0 0 0 0 0 0 0 0
Nghost:           8783 ave        8783 max        8783 min
Histogram: 1 0 0 0 0 0 0 0 0 0
Neighs:              0 ave           0 max           0 min
Histogram: 1 0 0 0 0 0 0 0 0 0

Total # of neighbors = 0
Ave neighs/atom = 0
Neighbor list builds = 18658
Dangerous builds = 142
unfix       1
undump      1
reset_timestep 0
write_data  gprelaxed.data
System init for write_data ...

#nvt系综下弛豫
thermo     2000
thermo_style   custom step temp pe ke etotal vol pxx pyy pzz press
fix         1 all nvt temp 300 300 0.05
dump        1 all custom 20000 nvt.xyz id type x y z
run         100000
Per MPI rank memory allocation (min/avg/max) = 10.14 | 10.14 | 10.14 Mbytes
   Step          Temp          PotEng         KinEng         TotEng         Volume          Pxx            Pyy            Pzz           Press     
         0   301.09022     -388599.71      1905.4336     -386694.27      65917363      -109.02669      103.62148     -0.29359531    -1.8996003    
      2000   298.42106     -388602.4       1888.542      -386713.85      65917363      -103.60666      119.33902     -0.29046353     5.1473005    
      4000   299.82724     -388609.87      1897.4409     -386712.43      65917363      -99.627376      106.507        0.1233302      2.3343192    
      6000   301.37271     -388605.1       1907.2214     -386697.88      65917363      -107.3405       99.450315     -0.38081688    -2.7570015    
      8000   300.00922     -388619.71      1898.5926     -386721.12      65917363      -98.706753      101.43696     -0.15703566     0.85772462   
     10000   299.20916     -388616.35      1893.5294     -386722.82      65917363      -91.698189      102.67261      0.21640659     3.7302772    
     12000   299.78524     -388603.09      1897.1752     -386705.92      65917363      -97.27878       108.97075      0.33582515     4.0092636    
     14000   299.30536     -388621.02      1894.1382     -386726.88      65917363      -95.943375      88.221521     -0.34205601    -2.6879703    
     16000   300.20923     -388600.55      1899.8583     -386700.69      65917363      -100.14457      92.023824     -0.068436684   -2.7297284    
     18000   297.45721     -388615.33      1882.4423     -386732.89      65917363      -98.039015      126.23862      0.8553711      9.684991     
     20000   301.39385     -388608.16      1907.3551     -386700.8       65917363      -94.525427      117.0232       0.40700171     7.6349242    
     22000   299.77717     -388608.12      1897.1241     -386711         65917363      -91.941823      98.136019     -0.28050607     1.9712299    
     24000   302.00767     -388619.77      1911.2396     -386708.53      65917363      -96.72918       99.300813      0.21690754     0.92951359   
     26000   297.896       -388612.74      1885.2192     -386727.52      65917363      -94.00213       105.54273      0.55489093     4.0318293    
     28000   301.96704     -388607.33      1910.9825     -386696.35      65917363      -92.138147      106.96802      0.25640921     5.0287604    
     30000   300.41243     -388609.03      1901.1443     -386707.89      65917363      -94.998686      101.45827      0.48462234     2.3147351    
     32000   303.62181     -388609.77      1921.4547     -386688.31      65917363      -94.574824      92.344922      0.10693205    -0.70765645   
     34000   298.38771     -388586.85      1888.3309     -386698.52      65917363      -97.379205      107.96083     -1.0722709      3.169785     
     36000   299.53786     -388603.78      1895.6096     -386708.17      65917363      -92.768131      99.610639     -0.1579712      2.2281791    
     38000   299.94246     -388602.96      1898.1701     -386704.79      65917363      -93.415452      100.15494     -0.64240543     2.0323611    
     40000   300.18786     -388607.28      1899.7231     -386707.55      65917363      -95.27574       92.151077      0.25533708    -0.95644213   
     42000   301.3757      -388622.55      1907.2403     -386715.31      65917363      -91.14449       92.377106      0.2518454      0.49482048   
     44000   300.2456      -388606.28      1900.0885     -386706.19      65917363      -92.438146      115.6156       0.52070223     7.8993845    
     46000   300.76335     -388612.15      1903.365      -386708.79      65917363      -86.253381      100.45304      0.44017973     4.8799449    
     48000   301.71732     -388596.72      1909.4022     -386687.32      65917363      -99.071763      91.947997      0.12271279    -2.3336845    
     50000   301.63877     -388592.54      1908.9051     -386683.63      65917363      -90.287936      102.42973      0.4316056      4.1911343    
     52000   299.80834     -388613.87      1897.3213     -386716.55      65917363      -89.679256      116.57728      0.43623028     9.1114187    
     54000   300.12181     -388601.77      1899.3051     -386702.46      65917363      -96.258478      113.8045      -0.028240126    5.83926      
     56000   300.44883     -388614.33      1901.3746     -386712.95      65917363      -98.821775      92.142238      0.024793956   -2.2182478    
     58000   300.29962     -388606.63      1900.4304     -386706.2       65917363      -94.730079      101.59382     -0.35598958     2.1692512    
     60000   301.42233     -388610.66      1907.5354     -386703.12      65917363      -88.337227      100.97404      0.47814849     4.3716538    
     62000   299.8496      -388619.37      1897.5824     -386721.79      65917363      -90.292926      98.996226     -0.25188528     2.8171382    
     64000   302.13222     -388615.43      1912.0279     -386703.4       65917363      -87.665685      106.39804      0.85158726     6.5279817    
     66000   300.23544     -388609.68      1900.0242     -386709.66      65917363      -85.762267      108.95607      0.32149673     7.8384336    
     68000   298.37413     -388610.03      1888.245      -386721.78      65917363      -79.751467      102.27267     -0.12394893     7.4657501    
     70000   299.64145     -388601.33      1896.2652     -386705.06      65917363      -88.631816      105.85011     -0.42073052     5.5991873    
     72000   299.86196     -388598.73      1897.6607     -386701.06      65917363      -90.581183      109.41884     -0.36807678     6.1565275    
     74000   299.65421     -388614.75      1896.3459     -386718.4       65917363      -93.246164      99.709976      0.13872022     2.2008443    
     76000   298.67433     -388614.35      1890.1448     -386724.21      65917363      -95.467166      103.39047      0.37814426     2.7671508    
     78000   301.74628     -388596.83      1909.5855     -386687.24      65917363      -94.508577      102.39704     -0.58682808     2.433878     
     80000   299.21742     -388596.54      1893.5817     -386702.96      65917363      -96.269021      97.539958     -0.077053345    0.39796142   
     82000   299.38076     -388611.03      1894.6154     -386716.42      65917363      -91.38833       100.00901     -0.35905165     2.7538749    
     84000   300.02823     -388611.72      1898.7129     -386713         65917363      -93.430402      115.55059      0.13510986     7.4184334    
     86000   298.96947     -388597.54      1892.0126     -386705.53      65917363      -94.019097      108.34551      0.20462051     4.8436791    
     88000   298.95774     -388585.43      1891.9383     -386693.49      65917363      -95.596858      95.351899     -1.0530169     -0.43265851   
     90000   300.3237      -388605.87      1900.5828     -386705.29      65917363      -87.368831      97.886741      0.061960367    3.5266236    
     92000   301.84727     -388619.2       1910.2246     -386708.98      65917363      -83.725996      116.53384      0.026153715    10.944665    
     94000   299.87192     -388616.31      1897.7237     -386718.59      65917363      -86.496615      104.76842      0.91527049     6.3956907    
     96000   300.50084     -388598.86      1901.7038     -386697.16      65917363      -85.600606      89.378516     -0.15058854     1.2091073    
     98000   299.61538     -388606.25      1896.1002     -386710.15      65917363      -89.868088      96.970035      0.24049646     2.4474811    
    100000   299.50521     -388616.46      1895.403      -386721.06      65917363      -87.531206      114.52509      0.59761227     9.1971666    
Loop time of 194.133 on 1 procs for 100000 steps with 48960 atoms

Performance: 22.253 ns/day, 1.079 hours/ns, 515.111 timesteps/s, 25.220 Matom-step/s
58.6% CPU use with 1 MPI tasks x 1 OpenMP threads

MPI task timing breakdown:
Section |  min time  |  avg time  |  max time  |%varavg| %total
---------------------------------------------------------------
Pair    | 120.02     | 120.02     | 120.02     |   0.0 | 61.82
Neigh   | 0.43871    | 0.43871    | 0.43871    |   0.0 |  0.23
Comm    | 9.0458     | 9.0458     | 9.0458     |   0.0 |  4.66
Output  | 0.32594    | 0.32594    | 0.32594    |   0.0 |  0.17
Modify  | 52.255     | 52.255     | 52.255     |   0.0 | 26.92
Other   |            | 12.05      |            |       |  6.21

Nlocal:          48960 ave       48960 max       48960 min
Histogram: 1 0 0 0 0 0 0 0 0 0
Nghost:           8683 ave        8683 max        8683 min
Histogram: 1 0 0 0 0 0 0 0 0 0
Neighs:              0 ave           0 max           0 min
Histogram: 1 0 0 0 0 0 0 0 0 0

Total # of neighbors = 0
Ave neighs/atom = 0
Neighbor list builds = 6813
Dangerous builds = 0
unfix       1
undump      1
reset_timestep 0

#分块参数设置
variable X1      equal xlo
variable X2      equal xhi
variable Nlay    equal 100
variable Dscale  equal 1/${Nlay}   #分块个数
variable Dscale  equal 1/100   
variable Len     equal ${X2}-${X1} #总长度
variable Len     equal 2521.05423475734-${X1} 
variable Len     equal 2521.05423475734--23.70448875737 
variable Dz      equal ${Len}/${Nlay} #每一块尺寸
variable Dz      equal 2544.75872351471/${Nlay} 
variable Dz      equal 2544.75872351471/100 

#固定端和冷热源端点处坐标
variable   BL1    equal   ${X1}+2*${Dz}
variable   BL1    equal   -23.70448875737+2*${Dz}
variable   BL1    equal   -23.70448875737+2*25.4475872351471
variable   BL2    equal   ${X1}+6*${Dz}
variable   BL2    equal   -23.70448875737+6*${Dz}
variable   BL2    equal   -23.70448875737+6*25.4475872351471
variable   BR1   equal   ${X2}-6*${Dz}
variable   BR1   equal   2521.05423475734-6*${Dz}
variable   BR1   equal   2521.05423475734-6*25.4475872351471
variable   BR2   equal   ${X2}-2*${Dz}
variable   BR2   equal   2521.05423475734-2*${Dz}
variable   BR2   equal   2521.05423475734-2*25.4475872351471
#区域设置
region  reg_all block   ${X1}  ${X2}   INF INF      INF INF     units box
region  reg_all block   -23.70448875737  ${X2}   INF INF      INF INF     units box
region  reg_all block   -23.70448875737  2521.05423475734   INF INF      INF INF     units box
#左侧固定端
region  fixed_L block   INF    ${BL1}   INF INF      INF INF     units box
region  fixed_L block   INF    27.1906857129242   INF INF      INF INF     units box
#左侧热源
region  Hot block   ${BL1}  ${BL2}   INF INF      INF INF     units box
region  Hot block   27.1906857129242  ${BL2}   INF INF      INF INF     units box
region  Hot block   27.1906857129242  128.981034653513   INF INF      INF INF     units box
#右侧冷源
region  Cold    block   ${BR1} ${BR2}  INF INF      INF INF     units box
region  Cold    block   2368.36871134646 ${BR2}  INF INF      INF INF     units box
region  Cold    block   2368.36871134646 2470.15906028705  INF INF      INF INF     units box
#右侧固定端
region  fixed_R block   ${BR2} INF     INF INF      INF INF     units box
region  fixed_R block   2470.15906028705 INF     INF INF      INF INF     units box

#对以上区域内原子进行分组
group   fixed_L     region  fixed_L         #fixed
984 atoms in group fixed_L
group   Hot         region  Hot         #heatbath1
1944 atoms in group Hot
group   Cold        region  Cold        #heatbath2
1953 atoms in group Cold
group   fixed_R     region  fixed_R        #fixed
984 atoms in group fixed_R
group   mobile      subtract all fixed_L fixed_R
46992 atoms in group mobile
reset_timestep 0

#Delete 0.1% of atom in mobile
delete_atoms random fraction 0.01 yes mobile NULL 12345
Deleted 469 atoms, new total = 48491

#改变边界条件，传热方向改为固定边界
change_box all boundary  f p p
Changing box ...
#固定两端
velocity   fixed_L      set 0  0  0
velocity   fixed_R     set 0  0  0
fix      fixed_L     fixed_L    setforce  0   0   0
fix      fixed_R     fixed_R   setforce  0   0   0

#设置langevin控制冷热源
fix   3      Hot    langevin 400 400 0.05 14565 tally yes
fix   4      Cold   langevin 200 200 0.05 16576 tally yes
#nve系综
fix   5      all   nve

#定义热源和冷源输入和输出的能量
variable Time    equal step
variable EL      equal f_3
variable ER      equal f_4
#分块设置
compute 18 all chunk/atom bin/1d x lower ${Dscale} units reduced
compute 18 all chunk/atom bin/1d x lower 0.01 units reduced
#计算每一块的温度
fix 8 all ave/chunk 1 10000000 10000000 18 v_temp1 file temp_relax.dat

dump 1 all xyz 1000000 relax.xyz
thermo 20000
thermo_style custom step temp ke pe etotal press vol
run 10000000
Per MPI rank memory allocation (min/avg/max) = 14.17 | 14.17 | 14.17 Mbytes
   Step          Temp          KinEng         PotEng         TotEng         Press          Volume    
         0   287.38584      1801.284      -382675.83     -380874.55     -33.665409      65917363     
     20000   410.20947      2571.121      -383752.6      -381181.48      22.716491      65917363     
     40000   404.54132      2535.594      -383801.01     -381265.42      37.078889      65917363     
     60000   398.8175       2499.7181     -383823.31     -381323.59      35.912651      65917363     
     80000   395.94261      2481.6988     -383866.95     -381385.25      33.982448      65917363     
    100000   390.98507      2450.6258     -383877.89     -381427.26      29.626239      65917363     
    120000   390.46329      2447.3554     -383918.93     -381471.57      26.291769      65917363     
    140000   385.64154      2417.1335     -383928.78     -381511.64      25.558658      65917363     
    160000   383.28801      2402.382      -383940.83     -381538.44      28.54087       65917363     
    180000   379.82694      2380.6886     -383968.04     -381587.35      25.615574      65917363     
    200000   376.58046      2360.3402     -383985.91     -381625.57      33.928884      65917363     
    220000   374.48045      2347.1777     -384010.91     -381663.74      33.627689      65917363     
    240000   372.44469      2334.4179     -384019        -381684.58      28.965723      65917363     
    260000   368.44854      2309.3707     -384021.4      -381712.03      28.663338      65917363     
    280000   367.54323      2303.6965     -384050.63     -381746.93      38.158855      65917363     
    300000   366.06346      2294.4215     -384053.73     -381759.31      33.683912      65917363     
    320000   364.05137      2281.8101     -384055.6      -381773.79      29.413966      65917363     
    340000   362.31781      2270.9444     -384078.28     -381807.34      32.848176      65917363     
    360000   363.14746      2276.1445     -384100.38     -381824.23      33.008149      65917363     
    380000   360.02355      2256.5644     -384093.33     -381836.77      26.438611      65917363     
    400000   357.11548      2238.3371     -384095.89     -381857.56      22.314399      65917363     
    420000   355.68429      2229.3667     -384101.06     -381871.69      19.713331      65917363     
    440000   353.87033      2217.9971     -384116.39     -381898.39      30.170181      65917363     
    460000   353.75556      2217.2778     -384143.67     -381926.39      23.66501       65917363     
    480000   351.66639      2204.1832     -384143.64     -381939.45      24.743784      65917363     
    500000   349.89673      2193.0913     -384148.9      -381955.81      30.673891      65917363     
    520000   347.68047      2179.2001     -384156.44     -381977.24      24.231058      65917363     
    540000   349.047        2187.7653     -384176.44     -381988.67      29.279368      65917363     
    560000   347.89668      2180.5553     -384188.24     -382007.68      36.688043      65917363     
    580000   344.79625      2161.1224     -384172.66     -382011.54      31.506646      65917363     
    600000   345.17318      2163.4849     -384191.45     -382027.97      32.541225      65917363     
    620000   344.04635      2156.4221     -384199.58     -382043.16      25.791067      65917363     
    640000   341.17697      2138.4374     -384203.82     -382065.38      26.589362      65917363     
    660000   341.0755       2137.8013     -384211.75     -382073.95      30.978503      65917363     
    680000   340.9131       2136.7835     -384230.65     -382093.86      24.195182      65917363     
    700000   337.59669      2115.9968     -384229.12     -382113.12      30.025806      65917363     
    720000   337.79334      2117.2294     -384235.01     -382117.78      30.223505      65917363     
    740000   336.15611      2106.9675     -384240.56     -382133.59      29.115462      65917363     
    760000   336.54308      2109.3929     -384257.73     -382148.34      32.570271      65917363     
    780000   335.02162      2099.8567     -384257.78     -382157.93      25.839017      65917363     
    800000   335.20881      2101.03       -384257.41     -382156.38      29.365719      65917363     
    820000   333.74854      2091.8772     -384274.48     -382182.6       33.315737      65917363     
    840000   331.62385      2078.5601     -384264.02     -382185.46      27.911244      65917363     
    860000   331.57696      2078.2662     -384272.09     -382193.82      29.403122      65917363     
    880000   330.75858      2073.1367     -384285.55     -382212.42      28.224684      65917363     
    900000   330.07538      2068.8545     -384289.35     -382220.49      27.815562      65917363     
    920000   328.94738      2061.7844     -384288.82     -382227.04      24.315638      65917363     
    940000   328.50132      2058.9886     -384294.57     -382235.58      22.318066      65917363     
    960000   327.12733      2050.3767     -384297.81     -382247.43      27.618352      65917363     
    980000   325.95917      2043.0548     -384302.72     -382259.66      26.947648      65917363     
   1000000   326.74416      2047.9751     -384307.13     -382259.16      31.160274      65917363     
   1020000   326.2412       2044.8226     -384323.29     -382278.46      29.034452      65917363     
   1040000   323.23934      2026.0075     -384311.36     -382285.35      24.111874      65917363     
   1060000   323.04076      2024.7628     -384315.17     -382290.4       22.574478      65917363     
   1080000   323.33551      2026.6102     -384319.23     -382292.62      31.511827      65917363     
   1100000   324.13415      2031.6159     -384343.01     -382311.39      28.243619      65917363     
   1120000   321.92563      2017.7733     -384330.13     -382312.36      28.346779      65917363     
   1140000   320.0041       2005.7295     -384332.12     -382326.39      30.504404      65917363     
   1160000   323.10775      2025.1827     -384352.71     -382327.53      25.060881      65917363     
   1180000   320.739        2010.3357     -384344.38     -382334.04      22.882241      65917363     
   1200000   320.98285      2011.8641     -384347.6      -382335.73      25.750745      65917363     
   1220000   320.94791      2011.6452     -384353.57     -382341.92      18.958781      65917363     
   1240000   319.72035      2003.951      -384349.54     -382345.59      26.37881       65917363     
   1260000   319.83813      2004.6892     -384359.82     -382355.13      20.09934       65917363     
   1280000   317.42214      1989.5463     -384352.83     -382363.28      20.783301      65917363     
   1300000   316.34728      1982.8092     -384358.39     -382375.58      28.569896      65917363     
   1320000   316.91182      1986.3476     -384364.68     -382378.33      29.217559      65917363     
   1340000   317.35458      1989.1228     -384370.18     -382381.05      33.105047      65917363     
   1360000   315.63405      1978.3388     -384368.28     -382389.94      32.648672      65917363     
   1380000   315.53568      1977.7222     -384368.34     -382390.62      30.305167      65917363     
   1400000   317.24844      1988.4575     -384381.78     -382393.32      31.477424      65917363     
   1420000   315.19126      1975.5635     -384379.2      -382403.64      28.572701      65917363     
   1440000   313.65102      1965.9095     -384371.11     -382405.2       29.716977      65917363     
   1460000   313.73738      1966.4508     -384377.91     -382411.46      24.950327      65917363     
   1480000   314.30528      1970.0103     -384378.84     -382408.83      33.601853      65917363     
   1500000   314.79178      1973.0596     -384387.86     -382414.8       32.26256       65917363     
   1520000   312.71426      1960.0381     -384382.87     -382422.84      33.88074       65917363     
   1540000   314.26011      1969.7272     -384395.35     -382425.62      24.297986      65917363     
   1560000   313.86325      1967.2398     -384387.62     -382420.38      27.218953      65917363     
   1580000   311.73462      1953.8979     -384386.05     -382432.16      21.226383      65917363     
   1600000   313.5256       1965.1234     -384399.44     -382434.32      18.589396      65917363     
   1620000   311.58566      1952.9642     -384384.7      -382431.73      22.091334      65917363     
   1640000   311.62456      1953.208      -384392.74     -382439.53      28.146263      65917363     
   1660000   312.77639      1960.4275     -384414.9      -382454.47      25.409683      65917363     
   1680000   311.63523      1953.2749     -384405.37     -382452.1       27.659763      65917363     
   1700000   310.16896      1944.0846     -384403.89     -382459.8       29.286887      65917363     
   1720000   310.68156      1947.2975     -384399.51     -382452.21      28.934017      65917363     
   1740000   310.23512      1944.4992     -384404.85     -382460.35      26.563277      65917363     
   1760000   310.34558      1945.1916     -384401.26     -382456.06      26.668765      65917363     
   1780000   309.0852       1937.2917     -384403.12     -382465.83      25.177278      65917363     
   1800000   311.90436      1954.9618     -384420.33     -382465.37      27.155823      65917363     
   1820000   310.15584      1944.0024     -384408.4      -382464.4       28.235723      65917363     
   1840000   310.24972      1944.5908     -384420.49     -382475.9       29.902217      65917363     
   1860000   307.92801      1930.0387     -384412.24     -382482.21      28.648931      65917363     
   1880000   309.69194      1941.0947     -384422.04     -382480.95      28.656201      65917363     
   1900000   309.88801      1942.3236     -384424.27     -382481.95      20.205641      65917363     
   1920000   309.11673      1937.4894     -384419.28     -382481.79      32.253248      65917363     
   1940000   308.79772      1935.4899     -384420.05     -382484.56      19.524062      65917363     
   1960000   309.38177      1939.1506     -384420.01     -382480.86      31.804273      65917363     
   1980000   309.16491      1937.7914     -384422.85     -382485.06      31.537956      65917363     
   2000000   307.2018       1925.4869     -384410.5      -382485.01      28.508005      65917363     
   2020000   310.01412      1943.1141     -384432.87     -382489.76      28.741436      65917363     
   2040000   307.4885       1927.2839     -384414.88     -382487.59      30.904005      65917363     
   2060000   307.55984      1927.7311     -384418.64     -382490.91      26.267881      65917363     
   2080000   307.51078      1927.4236     -384419.8      -382492.37      27.278385      65917363     
   2100000   306.45994      1920.8371     -384425.37     -382504.54      26.607405      65917363     
   2120000   307.48474      1927.2604     -384434.08     -382506.82      25.818943      65917363     
   2140000   308.67662      1934.7308     -384423.8      -382489.07      26.706775      65917363     
   2160000   309.01824      1936.8721     -384423.05     -382486.18      25.362208      65917363     
   2180000   309.42347      1939.412      -384430.43     -382491.02      22.772727      65917363     
   2200000   307.97481      1930.332      -384428.45     -382498.12      29.961022      65917363     
   2220000   306.57358      1921.5494     -384416.97     -382495.42      20.038547      65917363     
   2240000   306.844        1923.2443     -384419.75     -382496.5       25.946236      65917363     
   2260000   307.13057      1925.0405     -384423.99     -382498.95      19.401516      65917363     
   2280000   308.21753      1931.8534     -384427.26     -382495.4       23.917295      65917363     
   2300000   307.62707      1928.1525     -384431.98     -382503.82      24.431568      65917363     
   2320000   306.39339      1920.42       -384421.93     -382501.51      29.066657      65917363     
   2340000   305.29902      1913.5606     -384416.51     -382502.95      24.159669      65917363     
   2360000   307.03638      1924.4501     -384428.36     -382503.91      32.197323      65917363     
   2380000   307.34273      1926.3703     -384438.88     -382512.51      26.889615      65917363     
   2400000   306.22795      1919.383      -384422        -382502.62      30.46118       65917363     
   2420000   305.61861      1915.5638     -384423.96     -382508.4       30.951781      65917363     
   2440000   305.99093      1917.8974     -384432.11     -382514.22      29.501187      65917363     
   2460000   304.89754      1911.0443     -384431.07     -382520.02      34.038425      65917363     
   2480000   307.365        1926.5099     -384442.73     -382516.22      38.024502      65917363     
   2500000   306.66424      1922.1176     -384438.86     -382516.74      28.481681      65917363     
   2520000   305.91196      1917.4025     -384433.39     -382515.99      25.102589      65917363     
   2540000   304.94165      1911.3207     -384429.91     -382518.59      29.519807      65917363     
   2560000   304.89587      1911.0338     -384430.07     -382519.03      22.311637      65917363     
   2580000   306.3869       1920.3793     -384438.91     -382518.53      23.935531      65917363     
   2600000   306.12456      1918.735      -384435.91     -382517.18      25.967627      65917363     
   2620000   306.20877      1919.2628     -384435.37     -382516.11      22.437051      65917363     
   2640000   304.91712      1911.167      -384435.77     -382524.61      21.461718      65917363     
   2660000   306.3508       1920.153      -384441.29     -382521.13      24.856963      65917363     
   2680000   306.0342       1918.1686     -384429.1      -382510.93      28.253285      65917363     
   2700000   305.9233       1917.4735     -384440.65     -382523.17      21.168223      65917363     
   2720000   307.41461      1926.8208     -384441.89     -382515.07      25.122721      65917363     
   2740000   305.48516      1914.7273     -384440.66     -382525.93      26.88952       65917363     
   2760000   305.31998      1913.692      -384436.78     -382523.09      27.781246      65917363     
   2780000   305.12615      1912.4771     -384445.1      -382532.62      24.303652      65917363     
   2800000   305.04287      1911.9552     -384446.17     -382534.22      23.005029      65917363     
   2820000   303.72119      1903.6711     -384436.34     -382532.67      27.05928       65917363     
   2840000   306.19246      1919.1606     -384450.26     -382531.1       28.747557      65917363     
   2860000   305.46832      1914.6218     -384451.51     -382536.89      29.756169      65917363     
   2880000   305.0409       1911.9428     -384443.78     -382531.84      32.825271      65917363     
   2900000   303.57562      1902.7587     -384433.65     -382530.9       24.982004      65917363     
   2920000   304.76968      1910.2428     -384448.14     -382537.89      28.707305      65917363     
   2940000   304.12993      1906.233      -384441.8      -382535.57      26.971761      65917363     
   2960000   305.30941      1913.6258     -384449.64     -382536.02      30.065152      65917363     
   2980000   303.94579      1905.0789     -384448.23     -382543.15      24.105547      65917363     
   3000000   304.39073      1907.8677     -384446.86     -382538.99      29.459821      65917363     
   3020000   305.12103      1912.445      -384445.39     -382532.94      28.413643      65917363     
   3040000   304.07815      1905.9084     -384450        -382544.09      29.90252       65917363     
   3060000   304.71643      1909.9091     -384448.48     -382538.57      32.629821      65917363     
   3080000   306.06585      1918.367      -384452.5      -382534.13      30.16431       65917363     
   3100000   306.1872       1919.1276     -384447.09     -382527.97      27.224621      65917363     
   3120000   303.63775      1903.1481     -384433.94     -382530.79      21.489803      65917363     
   3140000   305.11074      1912.3806     -384445.45     -382533.07      21.770652      65917363     
   3160000   304.35767      1907.6605     -384449.58     -382541.92      25.549778      65917363     
   3180000   306.56994      1921.5265     -384448.36     -382526.84      25.913516      65917363     
   3200000   303.88943      1904.7256     -384441.22     -382536.49      22.508641      65917363     
   3220000   305.8347       1916.9182     -384445.73     -382528.81      28.580468      65917363     
   3240000   304.54832      1908.8554     -384440.21     -382531.35      25.662032      65917363     
   3260000   306.39119      1920.4062     -384445.35     -382524.95      29.189067      65917363     
   3280000   305.15082      1912.6318     -384442.53     -382529.9       28.580788      65917363     
   3300000   303.8845       1904.6947     -384436.37     -382531.68      25.113121      65917363     
   3320000   304.03239      1905.6216     -384437.38     -382531.76      29.199562      65917363     
   3340000   304.81451      1910.5238     -384444.37     -382533.84      34.757013      65917363     
   3360000   306.17658      1919.061      -384451.94     -382532.88      29.345507      65917363     
   3380000   305.66855      1915.8768     -384451.32     -382535.45      27.86779       65917363     
   3400000   305.7832       1916.5954     -384450.07     -382533.48      28.845439      65917363     
   3420000   306.61186      1921.7893     -384445.08     -382523.29      28.506725      65917363     
   3440000   305.13257      1912.5174     -384438.04     -382525.52      28.024415      65917363     
   3460000   303.98931      1905.3516     -384439.19     -382533.84      30.022476      65917363     
   3480000   304.82166      1910.5687     -384451.4      -382540.83      26.975969      65917363     
   3500000   302.76157      1897.6564     -384441.85     -382544.19      24.935088      65917363     
   3520000   305.12175      1912.4496     -384436.01     -382523.56      30.455621      65917363     
   3540000   305.04758      1911.9847     -384445.02     -382533.03      28.027353      65917363     
   3560000   305.18935      1912.8732     -384446.64     -382533.77      31.251223      65917363     
   3580000   305.56889      1915.2521     -384457.61     -382542.36      28.791327      65917363     
   3600000   304.27261      1907.1273     -384442.63     -382535.5       21.252827      65917363     
   3620000   304.92772      1911.2334     -384440.4      -382529.17      24.056218      65917363     
   3640000   304.42744      1908.0978     -384445.13     -382537.03      27.742899      65917363     
   3660000   305.23769      1913.1762     -384444.43     -382531.25      27.225413      65917363     
   3680000   305.76165      1916.4603     -384438.63     -382522.17      29.98462       65917363     
   3700000   303.61308      1902.9935     -384425.26     -382522.27      27.201136      65917363     
   3720000   304.61237      1909.2569     -384439.14     -382529.89      28.520514      65917363     
   3740000   305.57188      1915.2709     -384449.22     -382533.95      32.421207      65917363     
   3760000   305.77311      1916.5322     -384442.08     -382525.55      29.270599      65917363     
   3780000   304.17457      1906.5128     -384437.65     -382531.14      30.018438      65917363     
   3800000   305.91912      1917.4473     -384449.02     -382531.58      23.763025      65917363     
   3820000   303.441        1901.9149     -384443.56     -382541.65      23.647612      65917363     
   3840000   305.07767      1912.1733     -384454.55     -382542.38      28.225756      65917363     
   3860000   302.97022      1898.9642     -384438.26     -382539.29      34.287979      65917363     
   3880000   302.54741      1896.314      -384440.83     -382544.52      19.932469      65917363     
   3900000   303.35975      1901.4057     -384444.16     -382542.75      23.775846      65917363     
   3920000   305.49049      1914.7608     -384458.56     -382543.8       27.992834      65917363     
   3940000   304.6854       1909.7146     -384447.74     -382538.03      29.497014      65917363     
   3960000   305.7558       1916.4237     -384449.07     -382532.65      29.774213      65917363     
   3980000   305.94826      1917.6299     -384443.05     -382525.42      23.203063      65917363     
   4000000   306.15047      1918.8974     -384447.12     -382528.23      28.556863      65917363     
   4020000   305.63758      1915.6827     -384445.92     -382530.24      30.622418      65917363     
   4040000   305.24353      1913.2129     -384449.34     -382536.13      25.413678      65917363     
   4060000   306.10843      1918.6339     -384440.21     -382521.58      25.608482      65917363     
   4080000   303.08561      1899.6874     -384426.97     -382527.28      21.866166      65917363     
   4100000   305.65482      1915.7908     -384447.25     -382531.46      21.005466      65917363     
   4120000   304.6589       1909.5485     -384442.67     -382533.13      24.702935      65917363     
   4140000   303.93439      1905.0074     -384435.59     -382530.59      23.327129      65917363     
   4160000   304.64517      1909.4624     -384441.33     -382531.87      27.785488      65917363     
   4180000   304.17918      1906.5417     -384439.77     -382533.23      29.802269      65917363     
   4200000   305.84212      1916.9647     -384453.68     -382536.71      27.593187      65917363     
   4220000   304.49362      1908.5126     -384447.28     -382538.77      23.248646      65917363     
   4240000   305.62045      1915.5753     -384448.12     -382532.55      30.252298      65917363     
   4260000   304.74463      1910.0859     -384448.04     -382537.95      27.821807      65917363     
   4280000   304.47508      1908.3964     -384443.05     -382534.66      29.037448      65917363     
   4300000   306.32753      1920.0072     -384448.47     -382528.46      28.133722      65917363     
   4320000   303.37938      1901.5287     -384439.11     -382537.58      28.663976      65917363     
   4340000   306.45323      1920.795      -384452.58     -382531.79      20.927867      65917363     
   4360000   305.95847      1917.694      -384446.23     -382528.54      30.259158      65917363     
   4380000   307.46847      1927.1584     -384434.6      -382507.44      25.918554      65917363     
   4400000   307.76599      1929.0232     -384431.04     -382502.01      27.888474      65917363     
   4420000   305.63223      1915.6492     -384426.76     -382511.11      33.164959      65917363     
   4440000   307.80464      1929.2654     -384447.68     -382518.42      32.6088        65917363     
   4460000   305.37735      1914.0516     -384426.01     -382511.96      29.862443      65917363     
   4480000   307.58136      1927.866      -384438.75     -382510.88      27.825072      65917363     
   4500000   307.71439      1928.6998     -384438.2      -382509.5       27.771986      65917363     
   4520000   308.11221      1931.1933     -384440.41     -382509.22      29.162562      65917363     
   4540000   307.72473      1928.7646     -384433.32     -382504.55      27.808588      65917363     
   4560000   307.0433       1924.4935     -384439.06     -382514.57      23.592974      65917363     
   4580000   305.49893      1914.8137     -384433.35     -382518.54      26.957679      65917363     
   4600000   306.42165      1920.5971     -384435.98     -382515.39      20.388398      65917363     
   4620000   307.8539       1929.5742     -384439.53     -382509.95      33.256017      65917363     
   4640000   306.94894      1923.9021     -384443.08     -382519.18      24.616339      65917363     
   4660000   306.14248      1918.8473     -384423.21     -382504.37      27.10369       65917363     
   4680000   306.96048      1923.9744     -384436.23     -382512.25      31.37917       65917363     
   4700000   306.79708      1922.9502     -384432.9      -382509.95      28.883156      65917363     
   4720000   305.91305      1917.4093     -384429.79     -382512.38      22.806336      65917363     
   4740000   306.19766      1919.1932     -384426.4      -382507.2       23.241873      65917363     
   4760000   306.18975      1919.1436     -384428.19     -382509.05      19.747219      65917363     
   4780000   307.62384      1928.1322     -384444.2      -382516.06      24.515549      65917363     
   4800000   305.51595      1914.9203     -384434.5      -382519.58      21.092857      65917363     
   4820000   304.96512      1911.4678     -384434.71     -382523.24      24.657078      65917363     
   4840000   305.5609       1915.2021     -384439.31     -382524.11      24.715588      65917363     
   4860000   304.49866      1908.5442     -384434.09     -382525.55      30.512961      65917363     
   4880000   306.30032      1919.8366     -384442.09     -382522.26      29.593477      65917363     
   4900000   307.41962      1926.8522     -384447.18     -382520.33      25.612418      65917363     
   4920000   305.53544      1915.0425     -384444.45     -382529.4       23.687508      65917363     
   4940000   303.9033       1904.8125     -384438.46     -382533.65      22.689806      65917363     
   4960000   304.77071      1910.2493     -384450.22     -382539.97      28.247621      65917363     
   4980000   303.12113      1899.91       -384438.31     -382538.4       29.241872      65917363     
   5000000   303.80654      1904.2061     -384442.25     -382538.05      25.021724      65917363     
   5020000   304.40338      1907.947      -384456.3      -382548.35      28.906576      65917363     
   5040000   301.27201      1888.3201     -384445.84     -382557.52      31.932797      65917363     
   5060000   304.35376      1907.636      -384461.15     -382553.52      29.751872      65917363     
   5080000   303.49904      1902.2787     -384457.22     -382554.94      27.173089      65917363     
   5100000   302.56212      1896.4063     -384457.59     -382561.18      28.482531      65917363     
   5120000   304.41615      1908.027      -384460.17     -382552.14      31.940736      65917363     
   5140000   304.30267      1907.3157     -384463.59     -382556.27      29.97537       65917363     
   5160000   303.40264      1901.6745     -384453.91     -382552.23      26.578742      65917363     
   5180000   303.47883      1902.152      -384463.08     -382560.93      22.780546      65917363     
   5200000   302.7706       1897.713      -384455.24     -382557.53      28.879809      65917363     
   5220000   302.6257       1896.8048     -384453.74     -382556.93      28.993277      65917363     
   5240000   302.20915      1894.1939     -384447.04     -382552.84      22.897257      65917363     
   5260000   302.06966      1893.3196     -384463.02     -382569.7       30.848486      65917363     
   5280000   303.63909      1903.1565     -384459.82     -382556.66      32.394502      65917363     
   5300000   304.1249       1906.2015     -384458.83     -382552.63      25.783789      65917363     
   5320000   304.83072      1910.6255     -384469.55     -382558.92      30.951325      65917363     
   5340000   302.50182      1896.0283     -384457.24     -382561.22      28.657699      65917363     
   5360000   302.20735      1894.1826     -384451.63     -382557.44      25.087141      65917363     
   5380000   304.16764      1906.4694     -384453.37     -382546.9       28.962581      65917363     
   5400000   304.50788      1908.602      -384459.14     -382550.54      24.644232      65917363     
   5420000   303.05331      1899.4849     -384457.33     -382557.84      21.899971      65917363     
   5440000   304.1018       1906.0567     -384452.89     -382546.84      23.188171      65917363     
   5460000   303.61286      1902.9921     -384455.32     -382552.33      23.089852      65917363     
   5480000   302.8842       1898.425      -384450.2      -382551.78      27.725368      65917363     
   5500000   303.77833      1904.0292     -384444.56     -382540.53      24.051365      65917363     
   5520000   306.32132      1919.9683     -384457.18     -382537.22      30.364962      65917363     
   5540000   303.19053      1900.345      -384442.66     -382542.32      27.260245      65917363     
   5560000   304.08188      1905.9318     -384446.93     -382541         26.311105      65917363     
   5580000   303.55513      1902.6302     -384440.06     -382537.43      33.540525      65917363     
   5600000   305.12551      1912.4731     -384452.57     -382540.1       30.112805      65917363     
   5620000   303.52807      1902.4607     -384441.85     -382539.39      24.718764      65917363     
   5640000   305.23939      1913.1869     -384448.96     -382535.77      25.78092       65917363     
   5660000   306.06908      1918.3872     -384448.48     -382530.09      22.388079      65917363     
   5680000   305.99445      1917.9195     -384454.43     -382536.51      25.68102       65917363     
   5700000   305.84193      1916.9635     -384446.54     -382529.58      28.919287      65917363     
   5720000   305.03943      1911.9336     -384446.25     -382534.32      29.701915      65917363     
   5740000   303.8511       1904.4853     -384445.7      -382541.21      29.172755      65917363     
   5760000   304.23026      1906.8619     -384449.24     -382542.38      30.987453      65917363     
   5780000   304.55889      1908.9217     -384455.08     -382546.16      32.097802      65917363     
   5800000   306.01496      1918.048      -384465.84     -382547.8       30.031684      65917363     
   5820000   303.60738      1902.9578     -384442.17     -382539.21      28.053588      65917363     
   5840000   304.82978      1910.6196     -384446.89     -382536.27      28.046228      65917363     
   5860000   304.24509      1906.9548     -384446.97     -382540.02      24.854476      65917363     
   5880000   304.44211      1908.1897     -384437.01     -382528.82      23.255911      65917363     
   5900000   304.23468      1906.8896     -384445.99     -382539.1       26.44527       65917363     
   5920000   303.04664      1899.4431     -384441.75     -382542.3       20.890234      65917363     
   5940000   304.57768      1909.0394     -384446.87     -382537.83      28.983553      65917363     
   5960000   304.73778      1910.0429     -384455.44     -382545.4       25.082208      65917363     
   5980000   304.94947      1911.3697     -384441.45     -382530.08      16.95586       65917363     
   6000000   304.66387      1909.5797     -384457.89     -382548.31      23.268072      65917363     
   6020000   305.13598      1912.5388     -384447.85     -382535.31      30.371439      65917363     
   6040000   304.78074      1910.3122     -384445.37     -382535.06      23.973843      65917363     
   6060000   304.14739      1906.3425     -384447.59     -382541.25      29.700268      65917363     
   6080000   303.66109      1903.2944     -384448.97     -382545.68      28.678796      65917363     
   6100000   301.85553      1891.9774     -384442.55     -382550.57      26.439311      65917363     
   6120000   304.39487      1907.8936     -384449.13     -382541.24      29.757078      65917363     
   6140000   303.50418      1902.3109     -384455.03     -382552.71      28.822895      65917363     
   6160000   303.3904       1901.5978     -384441.87     -382540.27      26.230076      65917363     
   6180000   303.33917      1901.2767     -384448.11     -382546.84      34.852457      65917363     
   6200000   305.41061      1914.2601     -384455.69     -382541.43      28.720454      65917363     
   6220000   304.1901       1906.6101     -384447.1      -382540.49      25.216687      65917363     
   6240000   305.94254      1917.5941     -384451.23     -382533.64      26.929109      65917363     
   6260000   301.63357      1890.5862     -384435.58     -382544.99      26.461331      65917363     
   6280000   302.87983      1898.3976     -384449.13     -382550.74      24.726833      65917363     
   6300000   304.06536      1905.8283     -384454.76     -382548.93      24.688761      65917363     
   6320000   304.03193      1905.6188     -384453.47     -382547.85      19.410062      65917363     
   6340000   302.87442      1898.3637     -384450.56     -382552.19      31.504408      65917363     
   6360000   303.59692      1902.8922     -384463.15     -382560.26      28.900587      65917363     
   6380000   303.42867      1901.8376     -384455.03     -382553.19      30.101563      65917363     
   6400000   304.15845      1906.4118     -384457.4      -382550.99      23.515337      65917363     
   6420000   303.48089      1902.1649     -384455.46     -382553.29      24.337434      65917363     
   6440000   304.3715       1907.7471     -384454.44     -382546.69      27.440042      65917363     
   6460000   304.46824      1908.3535     -384453.59     -382545.24      26.992527      65917363     
   6480000   304.67886      1909.6736     -384457.45     -382547.77      24.769104      65917363     
   6500000   303.87163      1904.614      -384457.09     -382552.48      25.392896      65917363     
   6520000   305.29191      1913.5161     -384460.45     -382546.93      28.528423      65917363     
   6540000   304.14102      1906.3025     -384451.23     -382544.92      25.270621      65917363     
   6560000   304.42909      1908.1081     -384448.73     -382540.62      21.392151      65917363     
   6580000   304.81977      1910.5568     -384462.6      -382552.04      21.946941      65917363     
   6600000   301.64789      1890.676      -384452.66     -382561.99      23.310384      65917363     
   6620000   302.36697      1895.1831     -384456.36     -382561.18      24.833541      65917363     
   6640000   303.20139      1900.4131     -384454.95     -382554.54      24.859173      65917363     
   6660000   303.7903       1904.1043     -384459.95     -382555.84      28.142343      65917363     
   6680000   301.38521      1889.0296     -384449.39     -382560.36      24.585071      65917363     
   6700000   302.84023      1898.1494     -384461.41     -382563.26      22.777083      65917363     
   6720000   305.1135       1912.3979     -384466.74     -382554.34      26.107502      65917363     
   6740000   302.71113      1897.3402     -384461.73     -382564.39      29.610471      65917363     
   6760000   302.05588      1893.2332     -384448.34     -382555.11      26.841062      65917363     
   6780000   302.77414      1897.7352     -384464.75     -382567.02      29.115978      65917363     
   6800000   301.15693      1887.5988     -384456.77     -382569.17      28.440547      65917363     
   6820000   301.96101      1892.6386     -384453.2      -382560.56      30.834184      65917363     
   6840000   301.24508      1888.1513     -384448.07     -382559.92      30.750773      65917363     
   6860000   301.33228      1888.6978     -384458.28     -382569.58      23.445809      65917363     
   6880000   301.79805      1891.6172     -384459.47     -382567.85      25.974517      65917363     
   6900000   302.11856      1893.6261     -384458.49     -382564.87      28.723666      65917363     
   6920000   302.27329      1894.5959     -384458.63     -382564.03      27.593125      65917363     
   6940000   303.76496      1903.9455     -384464.43     -382560.48      28.853847      65917363     
   6960000   303.09429      1899.7418     -384455.99     -382556.25      32.550716      65917363     
   6980000   302.3982       1895.3788     -384460.54     -382565.16      26.318617      65917363     
   7000000   301.95192      1892.5816     -384463.58     -382571         31.44271       65917363     
   7020000   302.70905      1897.3272     -384464.99     -382567.66      29.095072      65917363     
   7040000   301.64803      1890.6769     -384452.68     -382562         27.336681      65917363     
   7060000   304.29216      1907.2498     -384456.04     -382548.79      34.777939      65917363     
   7080000   303.64413      1903.1881     -384456.16     -382552.97      25.869527      65917363     
   7100000   303.57912      1902.7806     -384451.56     -382548.78      20.594852      65917363     
   7120000   304.49653      1908.5308     -384456.53     -382548         27.52759       65917363     
   7140000   303.76283      1903.9321     -384457.51     -382553.58      20.483571      65917363     
   7160000   303.71132      1903.6092     -384459.56     -382555.95      30.074093      65917363     
   7180000   301.8362       1891.8563     -384449.45     -382557.59      23.320092      65917363     
   7200000   302.48775      1895.9401     -384456.08     -382560.14      20.254556      65917363     
   7220000   302.76636      1897.6864     -384456.32     -382558.63      26.312662      65917363     
   7240000   303.46617      1902.0727     -384460.54     -382558.47      26.038115      65917363     
   7260000   303.19261      1900.3581     -384455.73     -382555.37      28.615567      65917363     
   7280000   303.12265      1899.9195     -384461        -382561.08      25.272024      65917363     
   7300000   302.04326      1893.1541     -384452.17     -382559.01      20.355739      65917363     
   7320000   301.9266       1892.4229     -384448.18     -382555.76      22.846928      65917363     
   7340000   302.23272      1894.3416     -384453.01     -382558.67      23.752895      65917363     
   7360000   302.90913      1898.5813     -384453.07     -382554.49      22.826288      65917363     
   7380000   302.74514      1897.5534     -384450.74     -382553.18      24.96802       65917363     
   7400000   303.08274      1899.6694     -384452.82     -382553.15      26.818557      65917363     
   7420000   303.56888      1902.7164     -384455.24     -382552.52      27.688007      65917363     
   7440000   304.88159      1910.9443     -384466.97     -382556.03      23.756893      65917363     
   7460000   302.79767      1897.8826     -384454.76     -382556.88      23.567214      65917363     
   7480000   305.43609      1914.4198     -384461.72     -382547.3       21.905052      65917363     
   7500000   302.58471      1896.5478     -384451.31     -382554.77      26.958245      65917363     
   7520000   303.62285      1903.0547     -384459.33     -382556.27      28.637765      65917363     
   7540000   302.87553      1898.3707     -384452.53     -382554.16      29.512025      65917363     
   7560000   302.61284      1896.7242     -384452.38     -382555.66      29.727855      65917363     
   7580000   303.56593      1902.6979     -384457.55     -382554.85      36.913279      65917363     
   7600000   303.45744      1902.018      -384457.59     -382555.57      30.774124      65917363     
   7620000   305.43187      1914.3933     -384467.16     -382552.77      26.574475      65917363     
   7640000   302.16751      1893.9329     -384447.29     -382553.35      31.68488       65917363     
   7660000   304.25019      1906.9868     -384451.12     -382544.14      32.052706      65917363     
   7680000   303.14523      1900.0611     -384456.76     -382556.7       21.526423      65917363     
   7700000   304.37916      1907.7951     -384452.76     -382544.96      29.797013      65917363     
   7720000   303.5811       1902.793      -384454.46     -382551.67      22.090534      65917363     
   7740000   304.8571       1910.7908     -384461.48     -382550.68      25.770507      65917363     
   7760000   303.35065      1901.3486     -384453.14     -382551.79      26.116438      65917363     
   7780000   304.98959      1911.6212     -384455.05     -382543.43      36.130157      65917363     
   7800000   304.82635      1910.598      -384452.78     -382542.18      26.887985      65917363     
   7820000   303.78797      1904.0897     -384446.95     -382542.86      25.449753      65917363     
   7840000   303.72516      1903.696      -384447.33     -382543.63      29.484877      65917363     
   7860000   303.28865      1900.96       -384445.28     -382544.32      25.507366      65917363     
   7880000   303.79179      1904.1136     -384452.09     -382547.98      29.697826      65917363     
   7900000   302.87819      1898.3873     -384451.24     -382552.86      22.219272      65917363     
   7920000   303.52609      1902.4482     -384452.5      -382550.05      24.967091      65917363     
   7940000   304.47446      1908.3925     -384460.49     -382552.09      27.328719      65917363     
   7960000   303.14567      1900.0639     -384459.65     -382559.59      26.094753      65917363     
   7980000   303.43153      1901.8556     -384467.84     -382565.98      28.042679      65917363     
   8000000   303.86994      1904.6034     -384464.11     -382559.51      31.461537      65917363     
   8020000   303.40438      1901.6854     -384463.28     -382561.6       27.964093      65917363     
   8040000   304.26544      1907.0823     -384456.34     -382549.26      23.829815      65917363     
   8060000   302.88912      1898.4558     -384452.19     -382553.73      30.97911       65917363     
   8080000   304.06947      1905.8541     -384457.8      -382551.95      26.151409      65917363     
   8100000   303.96556      1905.2028     -384461.6      -382556.4       26.356149      65917363     
   8120000   302.99501      1899.1196     -384445.82     -382546.71      24.492751      65917363     
   8140000   304.36995      1907.7374     -384452.18     -382544.44      26.511754      65917363     
   8160000   305.11238      1912.3908     -384452.1      -382539.71      26.523701      65917363     
   8180000   304.53958      1908.8006     -384462.1      -382553.3       29.349976      65917363     
   8200000   303.69104      1903.4822     -384447.02     -382543.53      22.099538      65917363     
   8220000   303.589        1902.8426     -384443.4      -382540.56      26.860256      65917363     
   8240000   305.29949      1913.5636     -384461.99     -382548.43      27.476187      65917363     
   8260000   306.69869      1922.3335     -384469.78     -382547.45      30.92871       65917363     
   8280000   304.04211      1905.6826     -384462.65     -382556.97      24.585794      65917363     
   8300000   303.80985      1904.2268     -384459        -382554.77      28.243978      65917363     
   8320000   304.46084      1908.3071     -384454.24     -382545.93      17.938887      65917363     
   8340000   304.03545      1905.6408     -384453.81     -382548.17      24.408632      65917363     
   8360000   304.5579       1908.9154     -384451.47     -382542.55      26.584783      65917363     
   8380000   304.17152      1906.4937     -384455.58     -382549.09      23.759957      65917363     
   8400000   304.35132      1907.6206     -384456.13     -382548.51      27.892896      65917363     
   8420000   302.53541      1896.2388     -384454.23     -382557.99      31.484479      65917363     
   8440000   302.12568      1893.6707     -384443.22     -382549.55      28.222282      65917363     
   8460000   305.15677      1912.669      -384460.97     -382548.3       25.923965      65917363     
   8480000   303.60274      1902.9287     -384456.86     -382553.93      27.105478      65917363     
   8500000   304.68925      1909.7387     -384457.68     -382547.95      30.749696      65917363     
   8520000   304.95593      1911.4102     -384459.97     -382548.56      26.067439      65917363     
   8540000   305.01422      1911.7756     -384462.75     -382550.97      30.982901      65917363     
   8560000   303.54261      1902.5518     -384452.72     -382550.17      26.619893      65917363     
   8580000   303.69652      1903.5165     -384449.83     -382546.31      22.924587      65917363     
   8600000   303.0668       1899.5695     -384444.64     -382545.07      32.13607       65917363     
[...]
   8720000   303.21596      1900.5044     -384453.29     -382552.79      29.154647      65917363     
   8740000   302.29329      1894.7213     -384453.45     -382558.73      24.50728       65917363     
   8760000   303.89576      1904.7653     -384455.83     -382551.06      25.683793      65917363     
   8780000   302.88357      1898.4211     -384452.49     -382554.07      29.297266      65917363     
   8800000   302.58219      1896.532      -384446.48     -382549.95      20.882514      65917363     
   8820000   304.4011       1907.9327     -384458.8      -382550.87      28.578938      65917363     
   8840000   302.81187      1897.9717     -384453.48     -382555.51      31.360545      65917363     
   8860000   304.36001      1907.6751     -384456.97     -382549.3       24.561536      65917363     
   8880000   304.00337      1905.4397     -384451.33     -382545.89      33.491383      65917363     
   8900000   303.69838      1903.5281     -384447.35     -382543.82      32.729426      65917363     
   8920000   305.80632      1916.7403     -384452.06     -382535.32      26.068285      65917363     
   8940000   304.80448      1910.4609     -384447.7      -382537.23      35.064663      65917363     
   8960000   305.44777      1914.493      -384454.91     -382540.42      30.467984      65917363     
   8980000   305.22186      1913.077      -384448.93     -382535.85      29.583407      65917363     
   9000000   303.08501      1899.6836     -384443.77     -382544.09      25.770153      65917363     
   9020000   301.30268      1888.5123     -384444.57     -382556.06      27.689085      65917363     
   9040000   304.15305      1906.3779     -384453.36     -382546.98      23.118957      65917363     
   9060000   302.45792      1895.7532     -384447.06     -382551.3       24.677259      65917363     
   9080000   303.12492      1899.9338     -384445.2      -382545.26      22.731369      65917363     
   9100000   305.19262      1912.8937     -384457.99     -382545.09      25.952333      65917363     
   9120000   303.57765      1902.7714     -384450.94     -382548.17      28.901342      65917363     
   9140000   303.81662      1904.2692     -384458.41     -382554.14      26.576179      65917363     
   9160000   302.22139      1894.2706     -384442.74     -382548.46      24.545378      65917363     
   9180000   302.91113      1898.5938     -384450.06     -382551.47      27.477522      65917363     
   9200000   304.25872      1907.0402     -384453.62     -382546.57      31.695916      65917363     
   9220000   303.72307      1903.6829     -384448.13     -382544.44      30.33237       65917363     
   9240000   304.37252      1907.7535     -384460.47     -382552.71      27.159328      65917363     
   9260000   304.78611      1910.3458     -384453.42     -382543.07      29.379015      65917363     
   9280000   304.71172      1909.8796     -384452.8      -382542.92      22.11666       65917363     
   9300000   304.57208      1909.0043     -384454.52     -382545.52      25.437858      65917363     
   9320000   302.88398      1898.4236     -384446.83     -382548.41      22.61815       65917363     
   9340000   304.31742      1907.4081     -384458.66     -382551.25      26.801689      65917363     
   9360000   304.18633      1906.5865     -384458.82     -382552.24      30.710902      65917363     
   9380000   302.55142      1896.3392     -384456.69     -382560.35      30.628335      65917363     
   9400000   302.60797      1896.6936     -384459.5      -382562.81      32.652996      65917363     
   9420000   302.70718      1897.3154     -384449.35     -382552.03      32.064304      65917363     
   9440000   304.0103       1905.4832     -384449.61     -382544.13      20.781831      65917363     
   9460000   304.67078      1909.623      -384457.35     -382547.73      28.273556      65917363     
   9480000   302.89505      1898.493      -384460.84     -382562.34      19.582155      65917363     
   9500000   303.88498      1904.6977     -384461.21     -382556.51      23.182881      65917363     
   9520000   306.11348      1918.6655     -384461.07     -382542.4       23.268027      65917363     
   9540000   305.87776      1917.1881     -384461.1      -382543.91      23.049582      65917363     
   9560000   303.69841      1903.5283     -384449        -382545.47      22.096616      65917363     
   9580000   303.6163       1903.0137     -384454.03     -382551.01      28.944291      65917363     
   9600000   302.88551      1898.4332     -384442.4      -382543.97      31.458512      65917363     
   9620000   302.40192      1895.4022     -384438.14     -382542.74      30.551107      65917363     
   9640000   303.46405      1902.0594     -384450.93     -382548.87      31.565877      65917363     
   9660000   304.54975      1908.8643     -384445.6      -382536.74      30.827212      65917363     
   9680000   303.63645      1903.1399     -384441.09     -382537.95      28.000624      65917363     
   9700000   303.92056      1904.9207     -384455.43     -382550.51      24.866855      65917363     
   9720000   303.8791       1904.6608     -384455.63     -382550.97      19.636461      65917363     
   9740000   302.88115      1898.4059     -384451.58     -382553.17      28.644142      65917363     
   9760000   304.1119       1906.12       -384464.67     -382558.55      27.010198      65917363     
   9780000   302.29739      1894.747      -384440.62     -382545.87      21.624707      65917363     
   9800000   304.43238      1908.1287     -384444.69     -382536.56      32.16241       65917363     
   9820000   305.47314      1914.652      -384452.99     -382538.33      26.720243      65917363     
   9840000   304.01648      1905.5219     -384446.66     -382541.14      29.084775      65917363     
   9860000   305.14352      1912.586      -384460.54     -382547.95      29.281145      65917363     
   9880000   303.20971      1900.4653     -384448.81     -382548.34      28.741128      65917363     
   9900000   302.04381      1893.1575     -384434.53     -382541.37      28.489656      65917363     
   9920000   302.53376      1896.2285     -384451.24     -382555.01      29.618543      65917363     
   9940000   304.20246      1906.6876     -384463.56     -382556.88      26.450753      65917363     
   9960000   302.97803      1899.0131     -384454.49     -382555.48      19.791373      65917363     
   9980000   303.44122      1901.9163     -384454.34     -382552.42      25.973394      65917363     
  10000000   302.95625      1898.8766     -384448.59     -382549.72      21.787929      65917363     
Loop time of 45377.3 on 1 procs for 10000000 steps with 48491 atoms

Performance: 9.520 ns/day, 2.521 hours/ns, 220.375 timesteps/s, 10.686 Matom-step/s
57.0% CPU use with 1 MPI tasks x 1 OpenMP threads

MPI task timing breakdown:
Section |  min time  |  avg time  |  max time  |%varavg| %total
---------------------------------------------------------------
Pair    | 24318      | 24318      | 24318      |   0.0 | 53.59
Neigh   | 48.918     | 48.918     | 48.918     |   0.0 |  0.11
Comm    | 877.03     | 877.03     | 877.03     |   0.0 |  1.93
Output  | 0.69869    | 0.69869    | 0.69869    |   0.0 |  0.00
Modify  | 18871      | 18871      | 18871      |   0.0 | 41.59
Other   |            | 1261       |            |       |  2.78

Nlocal:          48491 ave       48491 max       48491 min
Histogram: 1 0 0 0 0 0 0 0 0 0
Nghost:           8612 ave        8612 max        8612 min
Histogram: 1 0 0 0 0 0 0 0 0 0
Neighs:              0 ave           0 max           0 min
Histogram: 1 0 0 0 0 0 0 0 0 0

Total # of neighbors = 0
Ave neighs/atom = 0
Neighbor list builds = 749457
Dangerous builds = 0
unfix     8
undump    1
reset_timestep 0

#保存温差和能量，以下数据用于计算温度梯度和热流
fix 11 all ave/chunk 1 2000000 2000000 18 v_temp1 file temp_equ.dat
fix E_out   all print 2000 "${Time}  ${EL}  ${ER}" file Ener_equ.dat title "Time  E1  E2" screen no

dump         1  all xyz 200000 equ.xyz
thermo 20000
thermo_style custom step temp ke pe etotal press vol
#运行
run 2000000
Per MPI rank memory allocation (min/avg/max) = 14.67 | 14.67 | 14.67 Mbytes
   Step          Temp          KinEng         PotEng         TotEng         Press          Volume    
         0   302.95625      1898.8766     -384448.59     -382549.72      21.78793       65917363     
     20000   300.62704      1884.2775     -384445.35     -382561.08      21.408044      65917363     
     40000   303.04779      1899.4503     -384457.65     -382558.2       25.467152      65917363     
     60000   301.29502      1888.4643     -384454.15     -382565.68      26.735418      65917363     
     80000   302.84608      1898.1861     -384469.09     -382570.91      30.215305      65917363     
    100000   302.89656      1898.5024     -384466.89     -382568.39      27.362738      65917363     
    120000   302.74176      1897.5322     -384469.19     -382571.66      27.085712      65917363     
    140000   302.18606      1894.0492     -384468.6      -382574.55      26.873587      65917363     
    160000   302.86819      1898.3247     -384453.04     -382554.71      29.989184      65917363     
    180000   301.87236      1892.0829     -384445.58     -382553.5       23.704478      65917363     
    200000   303.83592      1904.3902     -384457.33     -382552.94      21.584091      65917363     
    220000   303.38019      1901.5338     -384452.86     -382551.33      23.772114      65917363     
    240000   303.52597      1902.4475     -384453.4      -382550.95      28.206126      65917363     
    260000   302.64349      1896.9163     -384443.86     -382546.94      30.398646      65917363     
    280000   304.06811      1905.8456     -384457.44     -382551.59      29.457246      65917363     
    300000   303.88681      1904.7092     -384452.71     -382548         31.739008      65917363     
    320000   302.54309      1896.287      -384436.88     -382540.6       28.087481      65917363     
    340000   304.35729      1907.6581     -384447.47     -382539.82      29.631939      65917363     
    360000   304.22239      1906.8125     -384447.74     -382540.93      29.293513      65917363     
    380000   301.97652      1892.7358     -384436.63     -382543.89      26.03421       65917363     
    400000   305.09791      1912.3002     -384445.24     -382532.94      23.579878      65917363     
    420000   304.16414      1906.4475     -384445.26     -382538.81      28.860493      65917363     
    440000   304.66929      1909.6136     -384451.02     -382541.41      21.863369      65917363     
    460000   306.53809      1921.3269     -384452.71     -382531.38      19.269975      65917363     
    480000   304.31898      1907.418      -384444.13     -382536.71      22.558369      65917363     
    500000   304.2208       1906.8025     -384442.06     -382535.25      22.993472      65917363     
    520000   303.6701       1903.3509     -384443.05     -382539.69      23.229477      65917363     
    540000   304.49936      1908.5485     -384450.6      -382542.05      27.462377      65917363     
    560000   303.84769      1904.464      -384448.39     -382543.92      31.087273      65917363     
    580000   304.01072      1905.4858     -384457.57     -382552.08      34.138051      65917363     
    600000   303.95355      1905.1275     -384452.67     -382547.54      28.019428      65917363     
    620000   303.28077      1900.9106     -384455.67     -382554.76      34.764699      65917363     
    640000   303.29301      1900.9873     -384439.87     -382538.89      31.409237      65917363     
    660000   305.53746      1915.0551     -384459.99     -382544.93      28.695824      65917363     
    680000   305.48285      1914.7129     -384462.75     -382548.04      28.569513      65917363     
    700000   304.31018      1907.3628     -384462.01     -382554.65      27.740074      65917363     
    720000   303.63919      1903.1572     -384451.48     -382548.32      24.196002      65917363     
    740000   304.67031      1909.62       -384453.04     -382543.42      28.580435      65917363     
    760000   302.70408      1897.296      -384449.99     -382552.69      24.893167      65917363     
    780000   303.22699      1900.5735     -384449.84     -382549.27      27.145191      65917363     
    800000   302.2719       1894.5872     -384445.74     -382551.15      24.923354      65917363     
    820000   303.8942       1904.7555     -384456.91     -382552.16      24.87117       65917363     
    840000   303.21359      1900.4895     -384449.75     -382549.26      29.968871      65917363     
    860000   303.41265      1901.7372     -384458.37     -382556.63      26.161448      65917363     
    880000   302.01177      1892.9567     -384454.42     -382561.47      30.680829      65917363     
    900000   301.91929      1892.3771     -384449.97     -382557.59      23.987526      65917363     
    920000   302.84727      1898.1935     -384461.36     -382563.16      31.232032      65917363     
    940000   301.34846      1888.7992     -384451.36     -382562.57      21.239826      65917363     
    960000   301.72297      1891.1466     -384460.44     -382569.29      24.801185      65917363     
    980000   302.83452      1898.1136     -384461.55     -382563.44      31.828573      65917363     
   1000000   303.67263      1903.3667     -384465.08     -382561.71      28.099964      65917363     
   1020000   301.4412       1889.3805     -384452.73     -382563.35      26.175562      65917363     
   1040000   301.87461      1892.097      -384454.75     -382562.65      20.946492      65917363     
   1060000   302.90154      1898.5337     -384462.62     -382564.09      23.237296      65917363     
   1080000   302.42174      1895.5264     -384457.29     -382561.76      24.105174      65917363     
   1100000   303.28656      1900.9469     -384470.61     -382569.66      27.001679      65917363     
   1120000   302.4266       1895.5568     -384463.44     -382567.88      30.277107      65917363     
   1140000   302.36834      1895.1916     -384454.69     -382559.49      23.32049       65917363     
   1160000   302.15154      1893.8328     -384457.64     -382563.81      26.575793      65917363     
   1180000   302.08138      1893.393      -384462.32     -382568.93      28.383839      65917363     
   1200000   302.51811      1896.1304     -384464.17     -382568.03      25.197256      65917363     
   1220000   302.05624      1893.2355     -384464.44     -382571.21      25.424952      65917363     
   1240000   300.48675      1883.3982     -384456.49     -382573.09      29.622241      65917363     
   1260000   302.17202      1893.9612     -384457.76     -382563.8       18.935587      65917363     
   1280000   301.56552      1890.1597     -384453.43     -382563.27      24.635399      65917363     
   1300000   301.83065      1891.8215     -384457.06     -382565.24      24.897671      65917363     
   1320000   303.62805      1903.0873     -384463.97     -382560.88      26.167606      65917363     
   1340000   300.99412      1886.5783     -384450.12     -382563.54      33.041194      65917363     
   1360000   303.51928      1902.4056     -384456.5      -382554.1       20.918162      65917363     
   1380000   303.56948      1902.7202     -384458.66     -382555.94      26.164599      65917363     
   1400000   303.0347       1899.3683     -384465.45     -382566.08      22.800275      65917363     
   1420000   301.40839      1889.1749     -384460.33     -382571.15      28.51514       65917363     
   1440000   300.71331      1884.8183     -384446.94     -382562.12      24.364817      65917363     
   1460000   302.42957      1895.5754     -384456.84     -382561.26      22.451262      65917363     
   1480000   301.43184      1889.3219     -384441.21     -382551.89      34.216454      65917363     
   1500000   303.88805      1904.7169     -384462.46     -382557.75      33.056342      65917363     
   1520000   302.70112      1897.2775     -384452.59     -382555.31      30.545249      65917363     
   1540000   304.22045      1906.8004     -384453.17     -382546.36      23.400219      65917363     
   1560000   303.6829       1903.4311     -384447.92     -382544.49      29.868918      65917363     
   1580000   302.9254       1898.6832     -384444.99     -382546.31      26.162266      65917363     
   1600000   302.27222      1894.5892     -384441.73     -382547.14      26.132755      65917363     
   1620000   305.26873      1913.3708     -384448.41     -382535.04      28.291252      65917363     
   1640000   302.95312      1898.857      -384435.43     -382536.57      28.454439      65917363     
   1660000   304.34111      1907.5567     -384442.76     -382535.21      30.653052      65917363     
   1680000   305.68655      1915.9896     -384451.47     -382535.48      24.289691      65917363     
   1700000   304.69521      1909.7761     -384454.1      -382544.33      25.90357       65917363     
   1720000   303.33061      1901.223      -384441.72     -382540.5       27.069726      65917363     
   1740000   304.41288      1908.0065     -384459.74     -382551.73      25.466838      65917363     
   1760000   304.64869      1909.4845     -384447.7      -382538.22      24.366039      65917363     
   1780000   304.46259      1908.3181     -384446.44     -382538.13      19.801593      65917363     
   1800000   302.90151      1898.5335     -384439.67     -382541.14      26.821572      65917363     
   1820000   303.13637      1900.0055     -384438.86     -382538.85      27.717759      65917363     
   1840000   304.99486      1911.6542     -384448.51     -382536.85      26.265917      65917363     
   1860000   304.47894      1908.4206     -384438.07     -382529.65      26.775767      65917363     
   1880000   303.69902      1903.5321     -384437.8      -382534.27      30.679855      65917363     
   1900000   303.99315      1905.3757     -384451.23     -382545.85      28.528878      65917363     
   1920000   305.08367      1912.2109     -384459.11     -382546.9       26.676514      65917363     
   1940000   305.1445       1912.5921     -384456.45     -382543.86      28.097654      65917363     
   1960000   306.18704      1919.1266     -384462.86     -382543.74      27.146832      65917363     
   1980000   305.46757      1914.6171     -384455.17     -382540.55      24.322089      65917363     
   2000000   302.60335      1896.6646     -384447.47     -382550.81      27.078342      65917363     
Loop time of 9034.63 on 1 procs for 2000000 steps with 48491 atoms

Performance: 9.563 ns/day, 2.510 hours/ns, 221.370 timesteps/s, 10.734 Matom-step/s
56.7% CPU use with 1 MPI tasks x 1 OpenMP threads

MPI task timing breakdown:
Section |  min time  |  avg time  |  max time  |%varavg| %total
---------------------------------------------------------------
Pair    | 4813.1     | 4813.1     | 4813.1     |   0.0 | 53.27
Neigh   | 9.6842     | 9.6842     | 9.6842     |   0.0 |  0.11
Comm    | 175.02     | 175.02     | 175.02     |   0.0 |  1.94
Output  | 0.56099    | 0.56099    | 0.56099    |   0.0 |  0.01
Modify  | 3784.1     | 3784.1     | 3784.1     |   0.0 | 41.88
Other   |            | 252.3      |            |       |  2.79

Nlocal:          48491 ave       48491 max       48491 min
Histogram: 1 0 0 0 0 0 0 0 0 0
Nghost:           8830 ave        8830 max        8830 min
Histogram: 1 0 0 0 0 0 0 0 0 0
Neighs:              0 ave           0 max           0 min
Histogram: 1 0 0 0 0 0 0 0 0 0

Total # of neighbors = 0
Ave neighs/atom = 0
Neighbor list builds = 148329
Dangerous builds = 0
Total wall time: 15:19:59
