LAMMPS (17 Apr 2024)
OMP_NUM_THREADS environment is not set. Defaulting to 1 thread. (src/comm.cpp:98)
  using 1 OpenMP thread(s) per MPI task
Loaded 1 plugins from C:\Users\titi-\AppData\Local\LAMMPS 64-bit 17Apr2024 with Python\plugins
package gpu 0
echo both
#模型基本设置
units             metal
dimension         3
newton            on
boundary          p p p
atom_style        atomic
neighbor          0.3 bin
#模拟步长0.5fs
timestep          0.0005
#读取data文件
read_data        gp.data
Reading data file ...
  orthogonal box = (-1.325127 -0.184999 -250) to (498.67487 49.815001 250)
  1 by 1 by 1 MPI processor grid
  reading atoms ...
  9792 atoms
  read_data CPU = 0.036 seconds
replicate 10 1 1
Replication is creating a 10x1x1 = 10 times larger system...
  orthogonal box = (-1.325127 -0.184999 -250) to (4998.6749 49.815001 250)
  1 by 1 by 1 MPI processor grid
  97920 atoms
  replicate CPU = 0.005 seconds
#力场设置
pair_style       tersoff/gpu
pair_coeff       * * C.tersoff C
Reading tersoff potential file C.tersoff with DATE: 2013-03-21

#计算温度
compute       ke1  all  ke/atom
variable      kb  equal 8.625e-5
variable      temp1 atom  c_ke1/1.5/${kb}
variable      temp1 atom  c_ke1/1.5/8.625e-05
#热力学量输出
thermo        1000
thermo_style  custom    step    temp   pxx pyy pzz press  vol
#温度初始化
velocity    all create 300 898758 mom yes rot yes dist gaussian
#能量最小化
min_style       cg
minimize        1.0e-8 1.0e-8 1000000 1000000

CITE-CITE-CITE-CITE-CITE-CITE-CITE-CITE-CITE-CITE-CITE-CITE-CITE

Your simulation uses code contributions which should be cited:

- GPU package (short-range, long-range and three-body potentials): doi:10.1016/j.cpc.2010.12.021, doi:10.1016/j.cpc.2011.10.012, doi:10.1016/j.cpc.2013.08.002, doi:10.1016/j.commatsci.2014.10.068, doi:10.1016/j.cpc.2016.10.020, doi:10.3233/APC200086

@Article{Brown11,
 author = {W. M. Brown and P. Wang and S. J. Plimpton and A. N. Tharrington},
 title = {Implementing Molecular Dynamics on Hybrid High Performance Computers---Short Range Forces},
 journal = {Comput.\ Phys.\ Commun.},
 year =    2011,
 volume =  182,
 pages =   {898--911},
 doi =     {10.1016/j.cpc.2010.12.021}
}

@Article{Brown12,
 author = {W. M. Brown and A. Kohlmeyer and S. J. Plimpton and A. N. Tharrington},
 title = {Implementing Molecular Dynamics on Hybrid High Performance Computers - Particle-Particle Particle-Mesh},
 journal = {Comput.\ Phys.\ Commun.},
 year =    2012,
 volume =  183,
 doi =     {10.1016/j.cpc.2011.10.012},
 pages =   {449--459}
}

@Article{Brown13,
 author = {W. M. Brown and Y. Masako},
 title = {Implementing Molecular Dynamics on Hybrid High Performance Computers---Three-Body Potentials},
 journal = {Comput.\ Phys.\ Commun.},
 year =    2013,
 volume =  184,
 pages =   {2785--2793},
 doi =     {10.1016/j.cpc.2013.08.002},
}

@Article{Trung15,
 author = {T. D. Nguyen and S. J. Plimpton},
 title = {Accelerating Dissipative Particle Dynamics Simulations for Soft Matter Systems},
 journal = {Comput.\ Mater.\ Sci.},
 year =    2015,
 doi =     {10.1016/j.commatsci.2014.10.068},
 volume =  100,
 pages =   {173--180}
}

@Article{Trung17,
 author = {T. D. Nguyen},
 title = {{GPU}-Accelerated {T}ersoff Potentials for Massively Parallel
    Molecular Dynamics Simulations},
 journal = {Comput.\ Phys.\ Commun.},
 year =    2017,
 doi =     {10.1016/j.cpc.2016.10.020},
 volume =  212,
 pages =   {113--122}
}

@inproceedings{Nikolskiy19,
 author = {V. Nikolskiy and V. Stegailov},
 title = {{GPU} Acceleration of Four-Site Water Models in {LAMMPS}},
 booktitle = {Proceedings of the International Conference on Parallel
    Computing (ParCo 2019), Prague, Czech Republic},
 doi =     {10.3233/APC200086},
 year =    2019
}

CITE-CITE-CITE-CITE-CITE-CITE-CITE-CITE-CITE-CITE-CITE-CITE-CITE

WARNING: Increasing communication cutoff to 4.5 for GPU pair style (src/GPU/pair_tersoff_gpu.cpp:228)
Per MPI rank memory allocation (min/avg/max) = 29.27 | 29.27 | 29.27 Mbytes
   Step          Temp           Pxx            Pyy            Pzz           Press          Volume    
         0   300            3622.0255      14161.758      32.649759      5938.811       1.25e+08     
       532   300            1578.1693      2926.9085      32.649759      1512.5759      1.25e+08     
Loop time of 3.30612 on 1 procs for 532 steps with 97920 atoms

52.5% CPU use with 1 MPI tasks x 1 OpenMP threads

Minimization stats:
  Stopping criterion = energy tolerance
  Energy initial, next-to-last, final = 
     -92862.3366326019  -776273.443937302  -776273.451466084
  Force two-norm initial, final = 72732.045 4.6395408
  Force max component initial, final = 1158.6923 0.09742322
  Final line search alpha, max atom move = 0.88807485 0.086519112
  Iterations, force evaluations = 532 1043

MPI task timing breakdown:
Section |  min time  |  avg time  |  max time  |%varavg| %total
---------------------------------------------------------------
Pair    | 1.6872     | 1.6872     | 1.6872     |   0.0 | 51.03
Neigh   | 0.00627    | 0.00627    | 0.00627    |   0.0 |  0.19
Comm    | 0.091258   | 0.091258   | 0.091258   |   0.0 |  2.76
Output  | 0          | 0          | 0          |   0.0 |  0.00
Modify  | 9.8e-05    | 9.8e-05    | 9.8e-05    |   0.0 |  0.00
Other   |            | 1.521      |            |       | 46.01

Nlocal:          97920 ave       97920 max       97920 min
Histogram: 1 0 0 0 0 0 0 0 0 0
Nghost:          16544 ave       16544 max       16544 min
Histogram: 1 0 0 0 0 0 0 0 0 0
Neighs:              0 ave           0 max           0 min
Histogram: 1 0 0 0 0 0 0 0 0 0

Total # of neighbors = 0
Ave neighs/atom = 0
Neighbor list builds = 34
Dangerous builds = 0
#npt系综下弛豫
thermo     2000
thermo_style   custom step temp pe ke etotal vol pxx pyy pzz press
fix         1 all npt temp 300 300 0.05 iso 0.0 0.0 0.5
dump        1 all custom 100000 npt.xyz id type x y z
run         200000
Per MPI rank memory allocation (min/avg/max) = 20.27 | 20.27 | 20.27 Mbytes
   Step          Temp          PotEng         KinEng         TotEng         Volume          Pxx            Pyy            Pzz           Press     
       532   300           -776273.45      3797.1072     -772476.34      1.25e+08       1578.1693      2926.9085      32.649759      1512.5759    
      2000   303.6648      -776945.82      3843.4927     -773102.33      1.3378972e+08 -407.68916      402.42505      0.47608915    -1.5960069    
      4000   298.98589     -777225.54      3784.2717     -773441.27      1.3199691e+08 -180.16118      176.75577     -0.26837767    -1.2245931    
      6000   299.53517     -777208.59      3791.2239     -773417.36      1.3139536e+08 -118.05296      122.06012     -0.5834884      1.1412238    
      8000   299.25929     -777192.29      3787.732      -773404.56      1.3160414e+08 -146.39625      147.04876     -0.20117843     0.15044351   
     10000   299.86874     -777214.12      3795.4459     -773418.67      1.3148669e+08 -124.18402      124.14663     -0.081223766   -0.039538995  
     12000   299.69666     -777220.08      3793.2678     -773426.81      1.3150312e+08 -120.04281      118.93407      0.12605609    -0.32756078   
     14000   298.79243     -777267.7       3781.823      -773485.88      1.3149397e+08 -133.97921      131.44198      0.24636607    -0.76362114   
     16000   298.64995     -777213.44      3780.0197     -773433.42      1.3159351e+08 -141.31903      136.56566     -0.072510348   -1.6086254    
     18000   299.69209     -777228.62      3793.21       -773435.41      1.3141955e+08 -114.40992      111.83849     -0.40063996    -0.99069235   
     20000   298.58651     -777218.36      3779.2167     -773439.15      1.314053e+08  -122.00668      123.93461     -0.20051097     0.57580742   
     22000   298.3051      -777236.1       3775.6549     -773460.44      1.3149661e+08 -128.57069      131.01278      0.11441646     0.85217084   
     24000   299.7135      -777197.9       3793.4811     -773404.42      1.3141986e+08 -112.36971      114.75151     -0.25166363     0.71004389   
     26000   299.45327     -777232.74      3790.1873     -773442.56      1.3158629e+08 -134.67805      124.74774      0.14889231    -3.2604751    
     28000   299.82002     -777223.03      3794.8292     -773428.2       1.3142392e+08 -108.38279      105.54482     -0.97607962    -1.2713517    
     30000   299.99289     -777219.09      3797.0173     -773422.07      1.3157764e+08 -124.42906      120.90735      0.20442726    -1.1057601    
     32000   298.88252     -777220.06      3782.9633     -773437.1       1.3141248e+08 -103.32927      113.63335     -0.26128123     3.3475974    
     34000   299.86855     -777242.89      3795.4435     -773447.45      1.3163545e+08 -128.894        131.79389      0.37234665     1.090746     
     36000   299.93941     -777214.77      3796.3404     -773418.43      1.3153746e+08 -115.6384       111.87092     -0.31116619    -1.3595485    
     38000   300.2648      -777243.04      3800.4588     -773442.58      1.3154617e+08 -111.45333      107.40405      0.22915109    -1.2733773    
     40000   300.97122     -777221.29      3809.4        -773411.89      1.3160899e+08 -120.03261      120.57056      0.67759552     0.40518179   
     42000   299.05837     -777222.28      3785.189      -773437.1       1.3156036e+08 -110.81695      117.99223     -0.04342627     2.3772844    
     44000   299.73979     -777211.93      3793.8138     -773418.12      1.3153317e+08 -106.93822      112.73392      0.30704538     2.0342478    
     46000   298.81011     -777226.34      3782.0468     -773444.3       1.3157648e+08 -109.65484      115.23323     -0.16387119     1.8048404    
     48000   300.52969     -777233.4       3803.8115     -773429.59      1.3160057e+08 -110.18725      117.42951      0.78434426     2.6755351    
     50000   299.13512     -777223.4       3786.1605     -773437.24      1.3156813e+08 -103.77279      109.71866      0.064328138    2.0033989    
     52000   299.20991     -777215.84      3787.107      -773428.73      1.3162171e+08 -116.63231      122.26137      0.26492236     1.9646593    
     54000   299.72324     -777222         3793.6043     -773428.39      1.3156619e+08 -108.27825      109.52049     -0.40256765     0.27989246   
     56000   300.24846     -777211.66      3800.252      -773411.41      1.3162899e+08 -113.48668      109.68851     -0.17268119    -1.3236163    
     58000   300.39864     -777233.61      3802.1529     -773431.46      1.3160965e+08 -106.7453       97.396511     -0.15224237    -3.167011     
     60000   298.26128     -777235.13      3775.1002     -773460.03      1.3166083e+08 -111.18152      113.54459      0.56487932     0.97598367   
     62000   301.15233     -777230.12      3811.6923     -773418.43      1.3159637e+08 -94.812948      102.98926      0.40809185     2.8614665    
     64000   299.24139     -777211.28      3787.5055     -773423.77      1.3168431e+08 -111.48367      114.97318     -0.10153616     1.1293246    
     66000   299.34928     -777232.45      3788.8711     -773443.57      1.3161239e+08 -105.17702      115.04865      0.19100254     3.3542126    
     68000   300.03468     -777229.42      3797.5462     -773431.87      1.3175378e+08 -118.79465      115.6849      -0.19590303    -1.1018848    
     70000   299.43317     -777214.34      3789.9329     -773424.4       1.3164458e+08 -102.90403      98.364754      0.1824401     -1.4522796    
     72000   299.47194     -777201.68      3790.4235     -773411.26      1.3179463e+08 -132.29947      116.13994     -0.48639939    -5.5486445    
     74000   299.52669     -777219.87      3791.1165     -773428.76      1.3165694e+08 -107.45337      108.21891     -0.28548787     0.16001623   
     76000   299.89874     -777216.05      3795.8256     -773420.23      1.3173088e+08 -118.59912      120.6224      -0.060628383    0.65421705   
     78000   299.92581     -777212.38      3796.1683     -773416.21      1.3163818e+08 -98.357631      99.714431     -0.58367551     0.25770822   
     80000   300.59179     -777217.94      3804.5975     -773413.34      1.3175201e+08 -111.69257      122.28605      0.6934921      3.7623246    
     82000   300.1462      -777222.96      3798.9577     -773424         1.3165492e+08 -102.58548      106.02163     -0.37733727     1.0196041    
     84000   299.93699     -777228.62      3796.3098     -773432.31      1.3176882e+08 -118.51625      118.79121      0.746241       0.34040042   
     86000   299.38544     -777222.83      3789.3287     -773433.5       1.3162705e+08 -97.399305      103.42013     -0.17285945     1.9493211    
     88000   300.58125     -777216.08      3804.4641     -773411.61      1.3175728e+08 -111.84191      121.39124      0.2784504      3.275927     
     90000   298.81249     -777215.95      3782.0769     -773433.87      1.316441e+08  -98.95258       103.19294     -0.78081667     1.1531808    
     92000   299.89188     -777212.31      3795.7387     -773416.57      1.3175327e+08 -114.95502      112.57656      0.012221814   -0.78874315   
     94000   301.74208     -777203.58      3819.1568     -773384.42      1.316604e+08  -107.61901      95.486242     -0.31275193    -4.1485061    
     96000   301.3886      -777206.89      3814.6828     -773392.21      1.3180187e+08 -127.21707      118.76012      0.43132786    -2.6752076    
     98000   299.87743     -777207.53      3795.5559     -773411.97      1.3163841e+08 -94.568238      98.01883      -0.28313707     1.0558186    
    100000   299.62458     -777223.34      3792.3556     -773430.98      1.3173599e+08 -112.12002      120.31927      0.57983883     2.9263634    
    102000   298.73591     -777216.41      3781.1076     -773435.3       1.3169229e+08 -101.5062       92.478574     -1.3646279     -3.4640835    
    104000   299.47466     -777208.1       3790.458      -773417.64      1.3178492e+08 -116.1266       108.64126      0.43826993    -2.3490253    
    106000   300.62985     -777224.94      3805.0793     -773419.86      1.3169062e+08 -98.762055      97.728057     -0.30068248    -0.44489344   
    108000   299.80409     -777225.01      3794.6276     -773430.38      1.317814e+08  -113.30395      107.24763      0.077378556   -1.9929781    
    110000   298.9822      -777228.06      3784.2249     -773443.83      1.3172133e+08 -105.81779      92.746219     -0.83569967    -4.6357566    
    112000   300.5575      -777232.73      3804.1635     -773428.57      1.3176693e+08 -109.73905      104.42598      0.40377348    -1.6364333    
    114000   299.94538     -777207.26      3796.4159     -773410.84      1.3171884e+08 -98.803708      96.316973     -0.37890251    -0.95521236   
    116000   299.47016     -777205.56      3790.4011     -773415.16      1.3175928e+08 -104.81227      104.9824      -0.091133982    0.026334623  
    118000   300.65071     -777222.24      3805.3433     -773416.9       1.3176038e+08 -103.68457      97.648367     -0.0079993412  -2.0147349    
    120000   299.95767     -777241.65      3796.5714     -773445.08      1.3177352e+08 -107.57074      107.94124      0.16071753     0.17707089   
    122000   300.43606     -777212.24      3802.6265     -773409.61      1.3174696e+08 -101.59246      102.11118      0.030427174    0.18304874   
    124000   299.35831     -777229.42      3788.9854     -773440.43      1.3176645e+08 -100.24694      111.31652      0.0044944569   3.6913584    
    126000   299.47701     -777199.75      3790.4878     -773409.27      1.317518e+08  -98.509603      104.15002     -0.26646751     1.7913169    
    128000   299.7145      -777208.8       3793.4937     -773415.3       1.3179623e+08 -111.37424      109.78101      0.058682785   -0.51151575   
    130000   300.6906      -777198.43      3805.8482     -773392.58      1.3173793e+08 -100.70994      104.33086     -0.19038995     1.1435114    
    132000   299.40921     -777207.61      3789.6296     -773417.98      1.3177542e+08 -103.42204      110.30966      0.036053962    2.3078915    
    134000   299.74017     -777204.4       3793.8186     -773410.58      1.3182117e+08 -108.48652      103.49035     -0.20139004    -1.732519     
    136000   301.69933     -777214.36      3818.6156     -773395.75      1.3177653e+08 -101.11429      103.41412      0.083817035    0.79455116   
    138000   300.80852     -777223.63      3807.3407     -773416.29      1.3176357e+08 -103.13659      108.96203      0.35702474     2.0608197    
    140000   300.16663     -777230.65      3799.2162     -773431.44      1.3180539e+08 -109.14854      107.34938      0.41428685    -0.46162434   
    142000   299.79816     -777212.48      3794.5526     -773417.92      1.3177639e+08 -105.93374      102.62982     -0.26048064    -1.188133     
    144000   302.67776     -777201.71      3830.9998     -773370.71      1.3179562e+08 -104.06813      106.45557      0.078010082    0.82181648   
    146000   299.3675      -777204.22      3789.1017     -773415.12      1.3173841e+08 -101.83235      104.51998      0.24812984     0.97858466   
    148000   300.48179     -777215.97      3803.2053     -773412.77      1.3178454e+08 -104.01844      114.4903       0.54535423     3.6724031    
    150000   300.69929     -777221.17      3805.9582     -773415.21      1.3172453e+08 -95.752861      101.94744     -0.072739009    2.0406149    
    152000   299.45847     -777225.93      3790.253      -773435.68      1.3183048e+08 -110.52914      114.47764      0.15293585     1.3671466    
    154000   299.59394     -777197.8       3791.9677     -773405.83      1.3173127e+08 -92.248684      102.54048     -0.45398333     3.2792719    
    156000   299.52254     -777225.69      3791.064      -773434.63      1.3183583e+08 -105.40999      108.35592      0.0924448      1.0127933    
    158000   301.05771     -777226.81      3810.4947     -773416.31      1.3179493e+08 -98.300849      95.781779     -0.078199906   -0.86575652   
    160000   300.30403     -777212.71      3800.9553     -773411.76      1.3180814e+08 -104.57113      105.68867     -0.026095333    0.36381584   
    162000   298.9287      -777213.68      3783.5477     -773430.13      1.3181078e+08 -101.80012      96.249283     -0.37595987    -1.9755984    
    164000   299.79626     -777240.06      3794.5285     -773445.53      1.3185714e+08 -114.1911       105.73058      0.35240382    -2.7027068    
    166000   301.02117     -777208.62      3810.0322     -773398.59      1.3179975e+08 -101.93434      102.24949     -0.15347913     0.053890307  
    168000   301.15226     -777219.11      3811.6915     -773407.41      1.3185684e+08 -108.96841      103.17762      0.29379086    -1.8323346    
    170000   299.78789     -777211.28      3794.4225     -773416.86      1.318256e+08  -107.45308      98.107394     -0.61960966    -3.3217661    
    172000   300.09286     -777219.56      3798.2826     -773421.28      1.3183997e+08 -109.36527      103.30845      0.0075743521  -2.0164168    
    174000   298.45071     -777221.15      3777.4979     -773443.66      1.3181113e+08 -102.99241      96.775025     -0.68741839    -2.3015999    
    176000   300.52363     -777211.68      3803.7349     -773407.95      1.3187921e+08 -105.86408      102.97624     -0.13863712    -1.008825     
    178000   300.99063     -777221.71      3809.6457     -773412.07      1.3180473e+08 -95.722038      97.59943       0.11017498     0.66252219   
    180000   300.6098      -777215.46      3804.8255     -773410.63      1.3185312e+08 -104.13086      105.90311      0.17743504     0.64989442   
    182000   300.11248     -777233.94      3798.5309     -773435.41      1.3183715e+08 -105.41289      94.290231      0.03024684    -3.6974699    
    184000   299.81008     -777221.62      3794.7034     -773426.92      1.3184143e+08 -105.57503      97.618577      0.052555198   -2.6346333    
    186000   299.62195     -777229.33      3792.3223     -773437.01      1.3181478e+08 -101.65696      108.44459      0.48635966     2.4246644    
    188000   300.01965     -777207.64      3797.3559     -773410.29      1.3177812e+08 -95.461976      101.0023      -0.65990557     1.6268056    
    190000   301.71125     -777223.09      3818.7665     -773404.32      1.3185352e+08 -108.87874      102.66902      0.5397543     -1.8899893    
    192000   301.55587     -777214.38      3816.7999     -773397.58      1.3183277e+08 -101.41099      94.674561     -0.73645714    -2.4909636    
    194000   300.09386     -777193.47      3798.2952     -773395.18      1.3187501e+08 -105.37949      100.91508      0.038178797   -1.4754092    
    196000   300.55836     -777215.27      3804.1744     -773411.1       1.3182094e+08 -95.938762      100.79912     -0.16787057     1.5641633    
    198000   299.9912      -777212.14      3796.9958     -773415.15      1.3183284e+08 -99.302862      109.87762     -0.14928666     3.4751579    
    200000   299.53189     -777215.25      3791.1824     -773424.06      1.3187312e+08 -104.50588      109.81455      0.093757828    1.8008095    
    200532   299.64955     -777205.84      3792.6716     -773413.17      1.3184967e+08 -103.68877      101.92393     -0.29737715    -0.68740652   
Loop time of 1320.51 on 1 procs for 200000 steps with 97920 atoms

Performance: 6.543 ns/day, 3.668 hours/ns, 151.456 timesteps/s, 14.831 Matom-step/s
53.0% CPU use with 1 MPI tasks x 1 OpenMP threads

MPI task timing breakdown:
Section |  min time  |  avg time  |  max time  |%varavg| %total
---------------------------------------------------------------
Pair    | 767.02     | 767.02     | 767.02     |   0.0 | 58.09
Neigh   | 3.6622     | 3.6622     | 3.6622     |   0.0 |  0.28
Comm    | 46.762     | 46.762     | 46.762     |   0.0 |  3.54
Output  | 0.31459    | 0.31459    | 0.31459    |   0.0 |  0.02
Modify  | 438.05     | 438.05     | 438.05     |   0.0 | 33.17
Other   |            | 64.7       |            |       |  4.90

Nlocal:          97920 ave       97920 max       97920 min
Histogram: 1 0 0 0 0 0 0 0 0 0
Nghost:          17245 ave       17245 max       17245 min
Histogram: 1 0 0 0 0 0 0 0 0 0
Neighs:              0 ave           0 max           0 min
Histogram: 1 0 0 0 0 0 0 0 0 0

Total # of neighbors = 0
Ave neighs/atom = 0
Neighbor list builds = 21441
Dangerous builds = 203
unfix       1
undump      1
reset_timestep 0
write_data  gprelaxed.data
System init for write_data ...

#nvt系综下弛豫
thermo     2000
thermo_style   custom step temp pe ke etotal vol pxx pyy pzz press
fix         1 all nvt temp 300 300 0.05
dump        1 all custom 20000 nvt.xyz id type x y z
run         100000
Per MPI rank memory allocation (min/avg/max) = 20.27 | 20.27 | 20.27 Mbytes
   Step          Temp          PotEng         KinEng         TotEng         Volume          Pxx            Pyy            Pzz           Press     
         0   299.64955     -777205.84      3792.6716     -773413.17      1.3184967e+08 -103.68878      101.92393     -0.29737716    -0.68740774   
      2000   299.15078     -777211.56      3786.3587     -773425.2       1.3184967e+08 -103.22958      110.24131     -0.32374863     2.2293275    
      4000   301.06608     -777227.18      3810.6007     -773416.58      1.3184967e+08 -103.70718      113.14779      0.091910895    3.177507     
      6000   301.11948     -777211.65      3811.2766     -773400.38      1.3184967e+08 -104.61923      101.30699     -0.29968885    -1.2039771    
      8000   299.2515      -777191.86      3787.6335     -773404.23      1.3184967e+08 -104.23741      93.823523     -0.61980687    -3.6778982    
     10000   300.65601     -777218.47      3805.4103     -773413.06      1.3184967e+08 -99.836462      100.63012      0.41427666     0.4026449    
     12000   299.75219     -777212.89      3793.9707     -773418.92      1.3184967e+08 -98.099249      101.16222     -0.30329186     0.91989334   
     14000   300.50073     -777208.11      3803.445      -773404.66      1.3184967e+08 -102.57718      101.39013      0.32124042    -0.28860251   
     16000   300.45433     -777210.58      3802.8577     -773407.73      1.3184967e+08 -103.70072      108.58369     -0.14457178     1.5794683    
     18000   300.38879     -777215.52      3802.0281     -773413.49      1.3184967e+08 -100.20926      94.633128     -0.39723028    -1.9911193    
     20000   299.97172     -777209.88      3796.7493     -773413.13      1.3184967e+08 -99.077812      87.782126     -0.57860543    -3.9580974    
     22000   300.67507     -777220.73      3805.6516     -773415.08      1.3184967e+08 -96.984517      95.477819      0.1461121     -0.4535285    
     24000   300.57969     -777201.88      3804.4444     -773397.43      1.3184967e+08 -100.83322      111.09252      0.24886284     3.5027225    
     26000   299.57885     -777231.06      3791.7767     -773439.28      1.3184967e+08 -99.2274        101.92206      0.53526529     1.0766428    
     28000   300.35764     -777211.32      3801.6339     -773409.68      1.3184967e+08 -100.55932      100.49522      0.10398116     0.013293533  
     30000   299.77849     -777212.88      3794.3035     -773418.58      1.3184967e+08 -94.099973      99.118555      0.18494796     1.7345102    
     32000   300.63147     -777227.43      3805.0997     -773422.33      1.3184967e+08 -101.26224      104.73673      0.1131622      1.1958842    
     34000   299.69521     -777205.4       3793.2495     -773412.15      1.3184967e+08 -99.106826      98.662934     -0.022601392   -0.15549762   
     36000   298.92483     -777216.69      3783.4987     -773433.19      1.3184967e+08 -100.82746      105.43025     -0.29589135     1.435634     
     38000   300.66176     -777237.76      3805.4831     -773432.27      1.3184967e+08 -95.683555      101.04392     -0.12609469     1.7447568    
     40000   299.79027     -777208.32      3794.4526     -773413.87      1.3184967e+08 -95.049245      100.39884      0.37583354     1.9084747    
     42000   300.78594     -777190.48      3807.055      -773383.43      1.3184967e+08 -94.973812      107.21914      0.16255227     4.1359588    
     44000   298.68306     -777230.86      3780.4387     -773450.42      1.3184967e+08 -91.518215      102.82125     -0.18072306     3.707439     
     46000   300.60622     -777206.83      3804.7801     -773402.05      1.3184967e+08 -92.047177      94.907155     -0.49953175     0.78681523   
     48000   299.20159     -777236.44      3787.0018     -773449.44      1.3184967e+08 -88.941776      96.643532     -0.36322012     2.4461785    
     50000   300.18546     -777198.41      3799.4546     -773398.95      1.3184967e+08 -88.598266      101.70296     -0.029046947    4.358549     
     52000   301.38993     -777204.1       3814.6996     -773389.4       1.3184967e+08 -92.904654      95.0625        0.014414211    0.72408674   
     54000   300.94486     -777204.15      3809.0663     -773395.08      1.3184967e+08 -92.05088       105.03838     -0.21893222     4.256188     
     56000   299.95785     -777224.38      3796.5737     -773427.8       1.3184967e+08 -87.807137      87.614173     -0.24995651    -0.14764004   
     58000   301.13299     -777215.17      3811.4476     -773403.72      1.3184967e+08 -92.554979      97.024531      0.033550371    1.501034     
     60000   299.99685     -777219.48      3797.0673     -773422.41      1.3184967e+08 -91.143092      105.17384     -0.20180301     4.609649     
     62000   299.68232     -777207.34      3793.0863     -773414.25      1.3184967e+08 -92.207125      98.203692     -0.3356988      1.8869561    
     64000   299.50541     -777208.47      3790.8472     -773417.63      1.3184967e+08 -90.176064      101.5305       0.073812566    3.8094164    
     66000   301.20273     -777213.61      3812.3302     -773401.28      1.3184967e+08 -90.189675      103.46899      0.55767834     4.6123298    
     68000   301.32918     -777214.74      3813.9306     -773400.81      1.3184967e+08 -94.510583      104.09632      0.23100998     3.2722495    
     70000   298.79141     -777222.07      3781.8101     -773440.26      1.3184967e+08 -90.514219      93.513373     -0.38241575     0.87224606   
     72000   299.42099     -777229         3789.7787     -773439.22      1.3184967e+08 -93.626483      108.4832       0.27493153     5.0438828    
     74000   300.2301      -777230.62      3800.0196     -773430.6       1.3184967e+08 -86.561453      101.08021      0.40096643     4.9732419    
     76000   301.26226     -777216.29      3813.0837     -773403.21      1.3184967e+08 -92.604232      101.1689       0.28096591     2.9485434    
     78000   300.2302      -777194.45      3800.0209     -773394.43      1.3184967e+08 -92.121085      99.388383     -0.41352684     2.2845905    
     80000   298.88924     -777229.05      3783.0484     -773446         1.3184967e+08 -88.893089      107.17273     -0.11377099     6.0552891    
     82000   299.02901     -777226.42      3784.8175     -773441.6       1.3184967e+08 -91.882432      110.20672      0.045219135    6.1231686    
     84000   300.73605     -777221.53      3806.4235     -773415.1       1.3184967e+08 -94.317725      97.821348      0.054612821    1.1860783    
     86000   300.77519     -777200.64      3806.9189     -773393.72      1.3184967e+08 -92.866754      98.247962     -0.15762231     1.741195     
     88000   299.59743     -777225.32      3792.0119     -773433.31      1.3184967e+08 -91.933632      111.24763      0.47896082     6.5976531    
     90000   300.58168     -777192.82      3804.4696     -773388.35      1.3184967e+08 -92.843739      102.66647     -0.025225341    3.2658348    
     92000   299.76066     -777207.49      3794.0779     -773413.41      1.3184967e+08 -87.7832        92.550666     -0.43932634     1.4427131    
     94000   299.67701     -777207.04      3793.0192     -773414.03      1.3184967e+08 -89.122974      97.987554     -0.37020657     2.8314577    
     96000   300.51499     -777199.28      3803.6255     -773395.66      1.3184967e+08 -89.94373       107.29639      0.21536955     5.8560113    
     98000   299.67842     -777232.68      3793.037      -773439.64      1.3184967e+08 -91.498131      104.7985       0.37492603     4.5584319    
    100000   301.16559     -777229.81      3811.8602     -773417.95      1.3184967e+08 -87.711307      93.973761     -0.090264909    2.0573962    
Loop time of 414.485 on 1 procs for 100000 steps with 97920 atoms

Performance: 10.423 ns/day, 2.303 hours/ns, 241.263 timesteps/s, 23.624 Matom-step/s
63.8% CPU use with 1 MPI tasks x 1 OpenMP threads

MPI task timing breakdown:
Section |  min time  |  avg time  |  max time  |%varavg| %total
---------------------------------------------------------------
Pair    | 247.17     | 247.17     | 247.17     |   0.0 | 59.63
Neigh   | 1.2007     | 1.2007     | 1.2007     |   0.0 |  0.29
Comm    | 19.846     | 19.846     | 19.846     |   0.0 |  4.79
Output  | 0.63847    | 0.63847    | 0.63847    |   0.0 |  0.15
Modify  | 114.48     | 114.48     | 114.48     |   0.0 | 27.62
Other   |            | 31.15      |            |       |  7.52

Nlocal:          97920 ave       97920 max       97920 min
Histogram: 1 0 0 0 0 0 0 0 0 0
Nghost:          17432 ave       17432 max       17432 min
Histogram: 1 0 0 0 0 0 0 0 0 0
Neighs:              0 ave           0 max           0 min
Histogram: 1 0 0 0 0 0 0 0 0 0

Total # of neighbors = 0
Ave neighs/atom = 0
Neighbor list builds = 7047
Dangerous builds = 0
unfix       1
undump      1
reset_timestep 0

#分块参数设置
variable X1      equal xlo
variable X2      equal xhi
variable Nlay    equal 100
variable Dscale  equal 1/${Nlay}   #分块个数
variable Dscale  equal 1/100   
variable Len     equal ${X2}-${X1} #总长度
variable Len     equal 5043.5297632627-${X1} 
variable Len     equal 5043.5297632627--46.1800172631997 
variable Dz      equal ${Len}/${Nlay} #每一块尺寸
variable Dz      equal 5089.7097805259/${Nlay} 
variable Dz      equal 5089.7097805259/100 

#固定端和冷热源端点处坐标
variable   BL1    equal   ${X1}+2*${Dz}
variable   BL1    equal   -46.1800172631997+2*${Dz}
variable   BL1    equal   -46.1800172631997+2*50.897097805259
variable   BL2    equal   ${X1}+6*${Dz}
variable   BL2    equal   -46.1800172631997+6*${Dz}
variable   BL2    equal   -46.1800172631997+6*50.897097805259
variable   BR1   equal   ${X2}-6*${Dz}
variable   BR1   equal   5043.5297632627-6*${Dz}
variable   BR1   equal   5043.5297632627-6*50.897097805259
variable   BR2   equal   ${X2}-2*${Dz}
variable   BR2   equal   5043.5297632627-2*${Dz}
variable   BR2   equal   5043.5297632627-2*50.897097805259
#区域设置
region  reg_all block   ${X1}  ${X2}   INF INF      INF INF     units box
region  reg_all block   -46.1800172631997  ${X2}   INF INF      INF INF     units box
region  reg_all block   -46.1800172631997  5043.5297632627   INF INF      INF INF     units box
#左侧固定端
region  fixed_L block   INF    ${BL1}   INF INF      INF INF     units box
region  fixed_L block   INF    55.6141783473183   INF INF      INF INF     units box
#左侧热源
region  Hot block   ${BL1}  ${BL2}   INF INF      INF INF     units box
region  Hot block   55.6141783473183  ${BL2}   INF INF      INF INF     units box
region  Hot block   55.6141783473183  259.202569568354   INF INF      INF INF     units box
#右侧冷源
region  Cold    block   ${BR1} ${BR2}  INF INF      INF INF     units box
region  Cold    block   4738.14717643115 ${BR2}  INF INF      INF INF     units box
region  Cold    block   4738.14717643115 4941.73556765218  INF INF      INF INF     units box
#右侧固定端
region  fixed_R block   ${BR2} INF     INF INF      INF INF     units box
region  fixed_R block   4941.73556765218 INF     INF INF      INF INF     units box

#对以上区域内原子进行分组
group   fixed_L     region  fixed_L         #fixed
1968 atoms in group fixed_L
group   Hot         region  Hot         #heatbath1
3912 atoms in group Hot
group   Cold        region  Cold        #heatbath2
3912 atoms in group Cold
group   fixed_R     region  fixed_R        #fixed
1968 atoms in group fixed_R
group   mobile      subtract all fixed_L fixed_R
93984 atoms in group mobile
reset_timestep 0

#Delete 0.1% of atom in mobile
delete_atoms random fraction 0.01 yes mobile NULL 12345
Deleted 939 atoms, new total = 96981

#改变边界条件，传热方向改为固定边界
change_box all boundary  f p p
Changing box ...
#固定两端
velocity   fixed_L      set 0  0  0
velocity   fixed_R     set 0  0  0
fix      fixed_L     fixed_L    setforce  0   0   0
fix      fixed_R     fixed_R   setforce  0   0   0

#设置langevin控制冷热源
fix   3      Hot    langevin 400 400 0.05 14565 tally yes
fix   4      Cold   langevin 200 200 0.05 16576 tally yes
#nve系综
fix   5      all   nve

#定义热源和冷源输入和输出的能量
variable Time    equal step
variable EL      equal f_3
variable ER      equal f_4
#分块设置
compute 18 all chunk/atom bin/1d x lower ${Dscale} units reduced
compute 18 all chunk/atom bin/1d x lower 0.01 units reduced
#计算每一块的温度
fix 8 all ave/chunk 1 10000000 10000000 18 v_temp1 file temp_relax.dat

dump 1 all xyz 1000000 relax.xyz
thermo 20000
thermo_style custom step temp ke pe etotal press vol
run 10000000
Per MPI rank memory allocation (min/avg/max) = 28.34 | 28.34 | 28.34 Mbytes
   Step          Temp          KinEng         PotEng         TotEng         Press          Volume    
         0   288.78456      3620.1019     -765423.94     -761803.84     -39.957333      1.3184967e+08
     20000   421.48297      5283.5625     -767505.52     -762221.96      32.22845       1.3184967e+08
     40000   419.11614      5253.8928     -767543.09     -762289.2       32.585826      1.3184967e+08
     60000   417.28539      5230.9431     -767574.94     -762344         29.376716      1.3184967e+08
     80000   413.76366      5186.796      -767585.69     -762398.89      31.763632      1.3184967e+08
    100000   413.31786      5181.2075     -767610.78     -762429.57      29.470863      1.3184967e+08
    120000   411.14849      5154.0131     -767624.13     -762470.12      27.02765       1.3184967e+08
    140000   409.41423      5132.273      -767640.64     -762508.37      27.415302      1.3184967e+08
    160000   408.62699      5122.4044     -767654.13     -762531.73      28.153902      1.3184967e+08
    180000   408.72197      5123.5951     -767672.62     -762549.02      27.484355      1.3184967e+08
    200000   405.82721      5087.3075     -767669.26     -762581.96      28.914613      1.3184967e+08
    220000   405.20083      5079.4553     -767672.59     -762593.14      32.725641      1.3184967e+08
    240000   404.72053      5073.4344     -767693.55     -762620.12      29.126567      1.3184967e+08
    260000   403.84408      5062.4475     -767704.61     -762642.16      28.037974      1.3184967e+08
    280000   403.14896      5053.7337     -767709.34     -762655.61      26.671077      1.3184967e+08
    300000   402.25972      5042.5866     -767716.64     -762674.05      26.684612      1.3184967e+08
    320000   401.1548       5028.7357     -767719.72     -762690.99      23.27461       1.3184967e+08
    340000   401.15885      5028.7865     -767738.71     -762709.93      25.561712      1.3184967e+08
    360000   401.62487      5034.6284     -767750.16     -762715.53      26.915923      1.3184967e+08
    380000   400.62417      5022.0839     -767748.7      -762726.61      27.250895      1.3184967e+08
    400000   399.6          5009.2453     -767761.19     -762751.95      27.071282      1.3184967e+08
    420000   399.49022      5007.8692     -767767.52     -762759.65      24.052006      1.3184967e+08
    440000   398.89998      5000.4701     -767776.94     -762776.47      24.622696      1.3184967e+08
    460000   398.79457      4999.1486     -767790.61     -762791.46      26.423623      1.3184967e+08
    480000   398.0574       4989.9078     -767781        -762791.1       27.535569      1.3184967e+08
    500000   397.77887      4986.4162     -767790.98     -762804.57      20.811828      1.3184967e+08
    520000   398.78938      4999.0836     -767812.59     -762813.51      31.199508      1.3184967e+08
    540000   394.6218       4946.8404     -767778.56     -762831.72      25.5492        1.3184967e+08
    560000   396.37758      4968.8502     -767813.29     -762844.44      30.242411      1.3184967e+08
    580000   395.54023      4958.3535     -767805.86     -762847.5       27.110469      1.3184967e+08
    600000   394.81293      4949.2363     -767809.75     -762860.52      28.530334      1.3184967e+08
    620000   395.64782      4959.7022     -767838.25     -762878.55      29.08656       1.3184967e+08
    640000   394.39135      4943.9514     -767834.91     -762890.96      30.549758      1.3184967e+08
    660000   393.85211      4937.1918     -767824.89     -762887.69      25.90638       1.3184967e+08
    680000   394.56415      4946.1176     -767850.44     -762904.33      29.275389      1.3184967e+08
    700000   394.02672      4939.3806     -767866.9      -762927.52      28.690794      1.3184967e+08
    720000   394.78526      4948.8895     -767883.17     -762934.28      31.680223      1.3184967e+08
    740000   392.53181      4920.641      -767867.24     -762946.6       32.579798      1.3184967e+08
    760000   390.80031      4898.9354     -767856.25     -762957.31      33.042882      1.3184967e+08
    780000   392.56484      4921.055      -767873.05     -762951.99      27.65386       1.3184967e+08
    800000   391.6284       4909.3161     -767877.39     -762968.07      27.24225       1.3184967e+08
    820000   391.01832      4901.6683     -767882.8      -762981.13      37.444762      1.3184967e+08
    840000   392.13318      4915.6438     -767901.29     -762985.64      29.244309      1.3184967e+08
    860000   391.49192      4907.6053     -767901.23     -762993.62      27.700525      1.3184967e+08
    880000   389.66933      4884.7579     -767884.9      -763000.14      24.966895      1.3184967e+08
    900000   391.07199      4902.3411     -767902.25     -762999.91      31.67603       1.3184967e+08
    920000   389.6243       4884.1934     -767906.36     -763022.16      27.745745      1.3184967e+08
    940000   388.77827      4873.5879     -767905.16     -763031.57      29.399525      1.3184967e+08
    960000   388.44277      4869.3822     -767905.15     -763035.76      28.150321      1.3184967e+08
    980000   388.70973      4872.7287     -767908.78     -763036.05      26.797184      1.3184967e+08
   1000000   388.39         4868.7207     -767917.68     -763048.96      30.645244      1.3184967e+08
   1020000   389.40187      4881.4051     -767937.47     -763056.07      29.888127      1.3184967e+08
   1040000   387.93269      4862.988      -767935.91     -763072.93      31.419395      1.3184967e+08
   1060000   387.26168      4854.5764     -767931.16     -763076.58      22.762094      1.3184967e+08
   1080000   388.85517      4874.5518     -767950.35     -763075.8       29.044022      1.3184967e+08
   1100000   387.30732      4855.1486     -767948.97     -763093.82      30.20563       1.3184967e+08
   1120000   386.89528      4849.9834     -767939.12     -763089.14      28.982558      1.3184967e+08
   1140000   386.61212      4846.4338     -767950.64     -763104.21      34.782508      1.3184967e+08
   1160000   385.55547      4833.188      -767952.34     -763119.16      25.702665      1.3184967e+08
   1180000   385.61416      4833.9237     -767962.29     -763128.37      27.945987      1.3184967e+08
   1200000   384.55553      4820.653      -767950.34     -763129.69      28.919709      1.3184967e+08
   1220000   385.02485      4826.5363     -767959.24     -763132.71      26.692258      1.3184967e+08
   1240000   385.97309      4838.4232     -767967.72     -763129.29      29.44485       1.3184967e+08
   1260000   386.21325      4841.4337     -767989.04     -763147.61      24.897518      1.3184967e+08
   1280000   383.7328       4810.3396     -767971.84     -763161.5       28.248604      1.3184967e+08
   1300000   383.08526      4802.2223     -767977.65     -763175.42      29.059062      1.3184967e+08
   1320000   384.8379       4824.1928     -767990.07     -763165.87      24.153101      1.3184967e+08
   1340000   383.76726      4810.7716     -767989.47     -763178.7       28.752768      1.3184967e+08
   1360000   384.29362      4817.3699     -768008.29     -763190.92      29.722116      1.3184967e+08
   1380000   382.55555      4795.582      -767990.92     -763195.34      24.075995      1.3184967e+08
   1400000   384.05145      4814.3341     -767999.54     -763185.21      29.275177      1.3184967e+08
   1420000   382.15188      4790.5218     -767991.75     -763201.22      27.087923      1.3184967e+08
   1440000   382.16999      4790.7488     -767987.36     -763196.61      28.956683      1.3184967e+08
   1460000   382.49133      4794.777      -767990.99     -763196.21      28.216224      1.3184967e+08
   1480000   382.18379      4790.9218     -768003.64     -763212.72      29.479535      1.3184967e+08
   1500000   381.03274      4776.4927     -768003.06     -763226.56      27.809527      1.3184967e+08
   1520000   380.56483      4770.6271     -767984.19     -763213.56      31.661504      1.3184967e+08
   1540000   381.83544      4786.555      -768012        -763225.44      24.452049      1.3184967e+08
   1560000   381.9669       4788.2029     -768022.1      -763233.89      30.00255       1.3184967e+08
   1580000   381.02927      4776.4491     -768007        -763230.55      30.321058      1.3184967e+08
   1600000   379.93728      4762.7604     -767996.4      -763233.63      26.91393       1.3184967e+08
   1620000   380.86318      4774.367      -768022.19     -763247.82      28.548866      1.3184967e+08
   1640000   379.11741      4752.4828     -768007.3      -763254.82      25.349178      1.3184967e+08
   1660000   379.2413       4754.0357     -768014.07     -763260.04      28.9077        1.3184967e+08
   1680000   380.47977      4769.5608     -768029.12     -763259.56      26.621177      1.3184967e+08
   1700000   380.18666      4765.8864     -768036.11     -763270.22      30.078362      1.3184967e+08
   1720000   378.94447      4750.3149     -768025.52     -763275.21      29.861334      1.3184967e+08
   1740000   379.84174      4761.5627     -768037.11     -763275.55      25.81558       1.3184967e+08
   1760000   378.92547      4750.0766     -768022.95     -763272.88      28.008504      1.3184967e+08
   1780000   379.41702      4756.2385     -768030.75     -763274.51      25.504215      1.3184967e+08
   1800000   378.06354      4739.2718     -768022.83     -763283.56      26.979502      1.3184967e+08
   1820000   379.66362      4759.3298     -768056.53     -763297.2       27.671475      1.3184967e+08
   1840000   378.88884      4749.6175     -768038.65     -763289.04      29.696313      1.3184967e+08
   1860000   378.50188      4744.7667     -768057.12     -763312.35      28.903288      1.3184967e+08
   1880000   378.10627      4739.8074     -768054.05     -763314.24      26.743125      1.3184967e+08
   1900000   379.09405      4752.1899     -768073.73     -763321.54      25.949426      1.3184967e+08
   1920000   378.18975      4740.8539     -768049.82     -763308.96      27.474849      1.3184967e+08
   1940000   377.34468      4730.2604     -768051.52     -763321.26      26.838901      1.3184967e+08
   1960000   378.21779      4741.2054     -768071.57     -763330.36      27.266194      1.3184967e+08
   1980000   377.51488      4732.394      -768055.45     -763323.06      29.220456      1.3184967e+08
   2000000   377.3052       4729.7655     -768060.87     -763331.11      25.481639      1.3184967e+08
   2020000   377.27782      4729.4223     -768061.57     -763332.15      25.390874      1.3184967e+08
   2040000   376.59629      4720.8789     -768060.14     -763339.26      28.245642      1.3184967e+08
   2060000   377.66199      4734.2381     -768075.86     -763341.62      29.439959      1.3184967e+08
   2080000   374.67678      4696.8166     -768047.01     -763350.2       26.923847      1.3184967e+08
   2100000   375.55621      4707.8408     -768046.21     -763338.37      27.708355      1.3184967e+08
   2120000   376.13893      4715.1456     -768073.46     -763358.31      31.345893      1.3184967e+08
   2140000   377.62698      4733.7992     -768104.28     -763370.48      29.473883      1.3184967e+08
   2160000   375.43175      4706.2807     -768081.94     -763375.66      24.694769      1.3184967e+08
   2180000   374.50192      4694.6245     -768076.88     -763382.25      31.229176      1.3184967e+08
   2200000   374.83505      4698.8005     -768095.26     -763396.46      27.498764      1.3184967e+08
   2220000   374.26884      4691.7027     -768095.01     -763403.31      26.086691      1.3184967e+08
   2240000   373.74686      4685.1594     -768082.44     -763397.28      27.152605      1.3184967e+08
   2260000   375.35411      4705.3073     -768107.86     -763402.55      28.480017      1.3184967e+08
   2280000   373.10288      4677.0866     -768095.03     -763417.94      29.125094      1.3184967e+08
   2300000   373.98881      4688.1924     -768102.03     -763413.84      28.276012      1.3184967e+08
   2320000   373.85492      4686.514      -768113.38     -763426.86      25.878842      1.3184967e+08
   2340000   374.20435      4690.8943     -768115.4      -763424.5       30.251133      1.3184967e+08
   2360000   373.49908      4682.0533     -768114.83     -763432.78      27.260599      1.3184967e+08
   2380000   373.50493      4682.1267     -768119.1      -763436.98      29.396755      1.3184967e+08
   2400000   373.37895      4680.5474     -768121.82     -763441.27      26.499101      1.3184967e+08
   2420000   372.04078      4663.7725     -768119.81     -763456.03      23.046494      1.3184967e+08
   2440000   373.04575      4676.3705     -768127.47     -763451.1       30.827597      1.3184967e+08
   2460000   371.7308       4659.8868     -768116.02     -763456.14      24.743297      1.3184967e+08
   2480000   372.76476      4672.8481     -768133.64     -763460.79      27.284072      1.3184967e+08
   2500000   371.54372      4657.5416     -768120.21     -763462.67      24.112583      1.3184967e+08
   2520000   372.26961      4666.6411     -768123.68     -763457.04      28.368397      1.3184967e+08
   2540000   371.02341      4651.0192     -768114.24     -763463.22      26.742224      1.3184967e+08
   2560000   371.44809      4656.3428     -768123.11     -763466.77      32.165086      1.3184967e+08
   2580000   370.3446       4642.5099     -768103.25     -763460.75      26.21973       1.3184967e+08
   2600000   372.54957      4670.1506     -768137.35     -763467.2       28.477223      1.3184967e+08
   2620000   371.29116      4654.3756     -768125.2      -763470.83      30.834934      1.3184967e+08
   2640000   370.20369      4640.7435     -768114.53     -763473.79      28.362719      1.3184967e+08
   2660000   371.3612       4655.2536     -768123.87     -763468.61      32.242168      1.3184967e+08
   2680000   372.32207      4667.2988     -768141.05     -763473.75      25.506054      1.3184967e+08
   2700000   372.2647       4666.5795     -768142.07     -763475.49      22.772434      1.3184967e+08
   2720000   372.33999      4667.5234     -768152.53     -763485.01      30.264847      1.3184967e+08
   2740000   371.49925      4656.9842     -768137.26     -763480.28      29.476789      1.3184967e+08
   2760000   371.70344      4659.5439     -768137.82     -763478.28      29.656546      1.3184967e+08
   2780000   371.14618      4652.5582     -768142.34     -763489.78      26.815812      1.3184967e+08
   2800000   370.48592      4644.2814     -768131.01     -763486.72      32.178411      1.3184967e+08
   2820000   371.09739      4651.9466     -768152.82     -763500.87      26.338396      1.3184967e+08
   2840000   369.86138      4636.4523     -768148.59     -763512.13      27.902946      1.3184967e+08
   2860000   370.71836      4647.1952     -768157.55     -763510.35      28.723599      1.3184967e+08
   2880000   368.74791      4622.4943     -768139.54     -763517.04      26.483595      1.3184967e+08
   2900000   369.41967      4630.9153     -768150.51     -763519.6       32.046292      1.3184967e+08
   2920000   369.37596      4630.3674     -768149.5      -763519.14      27.573459      1.3184967e+08
   2940000   369.19978      4628.1588     -768156.74     -763528.58      27.612623      1.3184967e+08
   2960000   369.82118      4635.9484     -768167.61     -763531.66      27.305981      1.3184967e+08
   2980000   368.41391      4618.3074     -768161.72     -763543.41      27.518049      1.3184967e+08
   3000000   369.95595      4637.6379     -768174.98     -763537.34      28.115564      1.3184967e+08
   3020000   370.26045      4641.4549     -768168.7      -763527.24      26.880199      1.3184967e+08
   3040000   368.8179       4623.3717     -768177.91     -763554.54      25.694058      1.3184967e+08
   3060000   367.01507      4600.7721     -768153.63     -763552.86      28.471792      1.3184967e+08
   3080000   368.51438      4619.5669     -768190.57     -763571         30.25949       1.3184967e+08
   3100000   368.59747      4620.6085     -768183.73     -763563.12      29.532568      1.3184967e+08
   3120000   369.33752      4629.8854     -768203.2      -763573.32      31.148509      1.3184967e+08
   3140000   368.37366      4617.8028     -768191.22     -763573.41      29.172411      1.3184967e+08
   3160000   367.99963      4613.1141     -768188        -763574.88      30.371184      1.3184967e+08
   3180000   366.06737      4588.892      -768177.36     -763588.47      32.973812      1.3184967e+08
   3200000   368.46394      4618.9346     -768210.23     -763591.3       32.589489      1.3184967e+08
   3220000   366.98073      4600.3416     -768188.86     -763588.52      26.75797       1.3184967e+08
   3240000   366.38777      4592.9084     -768182.66     -763589.76      26.953926      1.3184967e+08
   3260000   366.73332      4597.2402     -768182.73     -763585.49      22.013965      1.3184967e+08
   3280000   366.43614      4593.5148     -768194.59     -763601.08      24.538289      1.3184967e+08
   3300000   366.33674      4592.2687     -768200.97     -763608.7       28.757839      1.3184967e+08
   3320000   367.71098      4609.4958     -768203.26     -763593.76      30.060138      1.3184967e+08
   3340000   366.77039      4597.7048     -768194.09     -763596.38      29.01964       1.3184967e+08
   3360000   367.65574      4608.8033     -768211.86     -763603.06      25.890763      1.3184967e+08
   3380000   367.13926      4602.3289     -768213.94     -763611.61      35.504939      1.3184967e+08
   3400000   366.81615      4598.2785     -768211.47     -763613.19      27.347574      1.3184967e+08
   3420000   367.20353      4603.1345     -768218.71     -763615.57      30.98263       1.3184967e+08
   3440000   366.89933      4599.3211     -768211.21     -763611.89      31.082863      1.3184967e+08
   3460000   365.46485      4581.339      -768208.65     -763627.31      28.289071      1.3184967e+08
   3480000   367.69428      4609.2864     -768223.23     -763613.94      28.225339      1.3184967e+08
   3500000   364.72227      4572.0303     -768193.87     -763621.84      27.100904      1.3184967e+08
   3520000   367.24061      4603.5994     -768221.35     -763617.75      27.841972      1.3184967e+08
   3540000   365.70527      4584.3528     -768205.22     -763620.87      27.250697      1.3184967e+08
   3560000   365.35055      4579.9062     -768212.49     -763632.59      30.319725      1.3184967e+08
   3580000   365.73308      4584.7015     -768214.27     -763629.57      31.016959      1.3184967e+08
   3600000   366.60467      4595.6275     -768223.03     -763627.4       31.256743      1.3184967e+08
   3620000   364.60774      4570.5946     -768206.08     -763635.48      27.699522      1.3184967e+08
   3640000   365.57274      4582.6915     -768222.81     -763640.12      28.134275      1.3184967e+08
   3660000   364.76392      4572.5525     -768219.03     -763646.48      28.247946      1.3184967e+08
   3680000   365.73195      4584.6872     -768235.45     -763650.77      27.076942      1.3184967e+08
   3700000   365.13109      4577.1551     -768225.12     -763647.96      28.130438      1.3184967e+08
   3720000   364.03072      4563.3613     -768210.8      -763647.43      29.518217      1.3184967e+08
   3740000   363.53841      4557.1899     -768221.72     -763664.53      25.154533      1.3184967e+08
   3760000   364.96938      4575.128      -768233.37     -763658.24      27.941771      1.3184967e+08
   3780000   364.39982      4567.9881     -768230.94     -763662.96      26.563335      1.3184967e+08
   3800000   364.28642      4566.5666     -768228.37     -763661.8       25.702762      1.3184967e+08
   3820000   365.06246      4576.2949     -768245.39     -763669.1       26.993996      1.3184967e+08
   3840000   364.40021      4567.993      -768235.65     -763667.66      26.382531      1.3184967e+08
   3860000   364.66253      4571.2815     -768238.05     -763666.77      27.399666      1.3184967e+08
   3880000   363.97769      4562.6965     -768225.93     -763663.24      28.030889      1.3184967e+08
   3900000   364.60979      4570.6203     -768240.57     -763669.95      26.444876      1.3184967e+08
   3920000   363.89514      4561.6617     -768232.42     -763670.76      29.800654      1.3184967e+08
   3940000   364.27756      4566.4556     -768247.8      -763681.34      30.055833      1.3184967e+08
   3960000   363.37047      4555.0846     -768229.16     -763674.08      29.166418      1.3184967e+08
   3980000   363.88427      4561.5254     -768241.18     -763679.65      26.366985      1.3184967e+08
   4000000   363.60325      4558.0027     -768233.92     -763675.91      26.287168      1.3184967e+08
   4020000   364.75396      4572.4276     -768253.09     -763680.66      29.16839       1.3184967e+08
   4040000   362.39652      4542.8756     -768231.23     -763688.35      26.775505      1.3184967e+08
   4060000   362.88734      4549.0283     -768227.28     -763678.26      26.147464      1.3184967e+08
   4080000   362.89094      4549.0734     -768231.15     -763682.08      28.753091      1.3184967e+08
   4100000   363.31487      4554.3876     -768240.91     -763686.53      26.774551      1.3184967e+08
   4120000   363.51651      4556.9154     -768246.23     -763689.32      26.055979      1.3184967e+08
   4140000   363.81503      4560.6575     -768240.33     -763679.68      29.596146      1.3184967e+08
   4160000   362.13922      4539.65       -768227.5      -763687.85      28.12892       1.3184967e+08
   4180000   362.92544      4549.5059     -768232.07     -763682.56      24.719315      1.3184967e+08
   4200000   362.23872      4540.8975     -768226.02     -763685.12      26.377835      1.3184967e+08
   4220000   363.95206      4562.3753     -768252.36     -763689.98      25.520027      1.3184967e+08
   4240000   363.31296      4554.3637     -768255.69     -763701.33      29.656662      1.3184967e+08
   4260000   362.66966      4546.2995     -768239.86     -763693.56      28.628172      1.3184967e+08
   4280000   362.98314      4550.2292     -768252.93     -763702.7       28.48187       1.3184967e+08
   4300000   363.28637      4554.0304     -768257.45     -763703.42      29.60989       1.3184967e+08
   4320000   363.83245      4560.8758     -768262.84     -763701.97      31.296668      1.3184967e+08
   4340000   364.17949      4565.2262     -768268.31     -763703.09      29.466336      1.3184967e+08
   4360000   362.25231      4541.0677     -768240.3      -763699.23      31.099723      1.3184967e+08
   4380000   364.23352      4565.9035     -768263.58     -763697.67      29.553618      1.3184967e+08
   4400000   362.54301      4544.7119     -768249.96     -763705.24      31.449656      1.3184967e+08
   4420000   362.57927      4545.1664     -768253.4      -763708.24      31.947278      1.3184967e+08
   4440000   362.65579      4546.1256     -768256        -763709.87      31.070747      1.3184967e+08
   4460000   362.93182      4549.5859     -768254.39     -763704.81      25.147578      1.3184967e+08
   4480000   363.18352      4552.741      -768255.23     -763702.49      27.051654      1.3184967e+08
   4500000   361.86233      4536.1791     -768235.09     -763698.91      31.316754      1.3184967e+08
   4520000   363.18048      4552.703      -768256.31     -763703.6       27.831147      1.3184967e+08
   4540000   362.72626      4547.0091     -768251.17     -763704.16      23.664663      1.3184967e+08
   4560000   362.42268      4543.2035     -768248.61     -763705.41      28.262602      1.3184967e+08
   4580000   362.57822      4545.1532     -768264.09     -763718.94      30.11442       1.3184967e+08
   4600000   362.68049      4546.4353     -768259.38     -763712.94      28.105734      1.3184967e+08
   4620000   361.70019      4534.1465     -768251.66     -763717.51      29.384191      1.3184967e+08
   4640000   362.41926      4543.1606     -768251.41     -763708.25      26.881781      1.3184967e+08
   4660000   361.00482      4525.4296     -768234.87     -763709.44      25.214541      1.3184967e+08
   4680000   362.10364      4539.204      -768249.18     -763709.98      25.39756       1.3184967e+08
   4700000   363.01479      4550.626      -768250.77     -763700.15      26.19496       1.3184967e+08
   4720000   362.22668      4540.7465     -768252.54     -763711.8       25.171173      1.3184967e+08
   4740000   363.34761      4554.798      -768257.3      -763702.5       23.256269      1.3184967e+08
   4760000   361.5436       4532.1836     -768240.21     -763708.02      26.105905      1.3184967e+08
   4780000   362.19588      4540.3603     -768254.03     -763713.67      26.934867      1.3184967e+08
   4800000   362.62987      4545.8007     -768251.1      -763705.3       25.383625      1.3184967e+08
   4820000   360.88671      4523.9491     -768244.56     -763720.61      29.287743      1.3184967e+08
   4840000   362.3608       4542.4278     -768257.86     -763715.43      25.720162      1.3184967e+08
   4860000   361.03938      4525.8629     -768239.2      -763713.33      29.223941      1.3184967e+08
   4880000   362.79076      4547.8175     -768270.17     -763722.35      27.089599      1.3184967e+08
   4900000   361.46399      4531.1856     -768245.8      -763714.62      28.302558      1.3184967e+08
   4920000   361.16638      4527.455      -768250.03     -763722.58      26.36579       1.3184967e+08
   4940000   363.60142      4557.9797     -768284.64     -763726.66      30.702191      1.3184967e+08
   4960000   362.50497      4544.235      -768265.7      -763721.46      28.972788      1.3184967e+08
   4980000   362.5941       4545.3523     -768262.87     -763717.51      26.006552      1.3184967e+08
   5000000   360.26106      4516.1061     -768255.09     -763738.99      25.609287      1.3184967e+08
   5020000   361.23859      4528.3602     -768273.78     -763745.42      28.491649      1.3184967e+08
   5040000   360.13721      4514.5536     -768264.36     -763749.8       23.005199      1.3184967e+08
   5060000   360.90694      4524.2027     -768259.25     -763735.05      25.03988       1.3184967e+08
   5080000   361.33926      4529.6221     -768283.38     -763753.76      25.578509      1.3184967e+08
   5100000   361.49643      4531.5923     -768295.86     -763764.26      24.241082      1.3184967e+08
   5120000   360.72316      4521.8989     -768281.72     -763759.82      26.51256       1.3184967e+08
   5140000   361.52203      4531.9132     -768293.97     -763762.06      27.634544      1.3184967e+08
   5160000   359.89533      4511.5214     -768281.78     -763770.26      23.493743      1.3184967e+08
   5180000   359.84695      4510.915      -768278.84     -763767.93      24.875278      1.3184967e+08
   5200000   360.06884      4513.6965     -768292.41     -763778.71      23.414097      1.3184967e+08
   5220000   359.85114      4510.9675     -768278.69     -763767.72      30.723324      1.3184967e+08
   5240000   360.08622      4513.9144     -768280.51     -763766.59      26.295122      1.3184967e+08
   5260000   359.7531       4509.7385     -768290.71     -763780.97      29.177517      1.3184967e+08
   5280000   359.35772      4504.7822     -768282.26     -763777.48      26.314287      1.3184967e+08
   5300000   358.93958      4499.5406     -768276.27     -763776.73      27.446423      1.3184967e+08
   5320000   359.31593      4504.2584     -768289.09     -763784.83      28.330687      1.3184967e+08
   5340000   360.02619      4513.1619     -768304.76     -763791.59      33.309294      1.3184967e+08
   5360000   360.16218      4514.8667     -768301.5      -763786.63      32.660103      1.3184967e+08
   5380000   359.747        4509.6621     -768291.28     -763781.62      29.069513      1.3184967e+08
   5400000   358.20296      4490.3065     -768275.26     -763784.96      28.123221      1.3184967e+08
   5420000   359.26252      4503.5888     -768293.66     -763790.07      26.189047      1.3184967e+08
   5440000   357.13749      4476.9502     -768273.62     -763796.67      22.882634      1.3184967e+08
   5460000   358.69158      4496.4317     -768286.02     -763789.59      27.28291       1.3184967e+08
   5480000   359.25795      4503.5315     -768286.57     -763783.04      26.541204      1.3184967e+08
   5500000   359.15976      4502.3006     -768293.25     -763790.95      29.282802      1.3184967e+08
   5520000   359.79721      4510.2915     -768304.58     -763794.29      28.95308       1.3184967e+08
   5540000   359.32264      4504.3425     -768293.5      -763789.15      27.225653      1.3184967e+08
   5560000   359.1528       4502.2134     -768306.49     -763804.27      25.376056      1.3184967e+08
   5580000   358.62517      4495.5992     -768300.21     -763804.61      29.596133      1.3184967e+08
   5600000   358.79077      4497.6752     -768309.39     -763811.72      28.04619       1.3184967e+08
   5620000   358.15461      4489.7004     -768302.13     -763812.43      29.976773      1.3184967e+08
   5640000   357.69712      4483.9655     -768292.4      -763808.44      28.591709      1.3184967e+08
   5660000   358.28127      4491.2882     -768316.97     -763825.68      26.251153      1.3184967e+08
   5680000   358.67425      4496.2145     -768316.88     -763820.67      27.857605      1.3184967e+08
   5700000   359.40134      4505.3291     -768314.11     -763808.78      25.145853      1.3184967e+08
   5720000   357.33918      4479.4785     -768294.85     -763815.38      27.961948      1.3184967e+08
   5740000   360.22294      4515.6283     -768320.92     -763805.29      26.474783      1.3184967e+08
   5760000   358.9192       4499.285      -768307.87     -763808.58      27.407238      1.3184967e+08
   5780000   358.18442      4490.0742     -768305.78     -763815.7       26.624581      1.3184967e+08
   5800000   356.6214       4470.4807     -768288.15     -763817.67      26.846825      1.3184967e+08
   5820000   358.04369      4488.31       -768310.19     -763821.88      25.873833      1.3184967e+08
   5840000   359.679        4508.8097     -768322.8      -763813.99      27.328292      1.3184967e+08
   5860000   358.47111      4493.668      -768305.73     -763812.06      29.100306      1.3184967e+08
   5880000   357.5025       4481.5258     -768309.75     -763828.22      28.219128      1.3184967e+08
   5900000   356.41039      4467.8355     -768300.87     -763833.03      26.980766      1.3184967e+08
   5920000   359.03923      4500.7897     -768335.82     -763835.03      26.546729      1.3184967e+08
   5940000   358.27634      4491.2264     -768318.23     -763827         25.789281      1.3184967e+08
   5960000   356.76619      4472.2957     -768298.13     -763825.84      28.789414      1.3184967e+08
   5980000   356.71277      4471.626      -768304.95     -763833.32      28.410632      1.3184967e+08
   6000000   358.36343      4492.3181     -768338.31     -763846         27.579115      1.3184967e+08
   6020000   356.72233      4471.7459     -768323.79     -763852.04      26.403448      1.3184967e+08
   6040000   356.05566      4463.3887     -768316.56     -763853.17      23.383046      1.3184967e+08
   6060000   357.98322      4487.5519     -768330.14     -763842.59      27.206428      1.3184967e+08
   6080000   358.14147      4489.5357     -768335.23     -763845.69      25.712203      1.3184967e+08
   6100000   356.45625      4468.4104     -768300.52     -763832.11      27.503991      1.3184967e+08
   6120000   357.30123      4479.0028     -768310.26     -763831.26      31.623619      1.3184967e+08
   6140000   357.28515      4478.8012     -768318.23     -763839.43      23.592958      1.3184967e+08
   6160000   357.35139      4479.6315     -768322.46     -763842.83      29.033007      1.3184967e+08
   6180000   356.11213      4464.0966     -768304.48     -763840.38      28.030819      1.3184967e+08
   6200000   356.82716      4473.0599     -768307.43     -763834.37      34.34216       1.3184967e+08
   6220000   357.58913      4482.6117     -768320.81     -763838.2       30.668446      1.3184967e+08
   6240000   356.37491      4467.3907     -768309.69     -763842.3       27.40955       1.3184967e+08
   6260000   357.99434      4487.6913     -768323.62     -763835.93      29.834733      1.3184967e+08
   6280000   356.80562      4472.79       -768313.65     -763840.86      27.368202      1.3184967e+08
   6300000   358.58062      4495.0407     -768339.1      -763844.06      27.412718      1.3184967e+08
   6320000   356.75178      4472.1151     -768322.41     -763850.3       29.800518      1.3184967e+08
   6340000   357.56151      4482.2656     -768336.23     -763853.96      34.590489      1.3184967e+08
   6360000   357.70368      4484.0477     -768335.02     -763850.98      27.557318      1.3184967e+08
   6380000   355.43885      4455.6566     -768306.09     -763850.43      29.160786      1.3184967e+08
   6400000   356.99707      4475.19       -768324.57     -763849.38      31.286558      1.3184967e+08
   6420000   355.7704       4459.8128     -768321.7      -763861.89      32.505019      1.3184967e+08
   6440000   357.89592      4486.4576     -768340.96     -763854.51      29.721218      1.3184967e+08
   6460000   357.26609      4478.5623     -768331.05     -763852.49      28.348045      1.3184967e+08
   6480000   355.88208      4461.2128     -768328.68     -763867.47      30.277672      1.3184967e+08
   6500000   357.5267       4481.8292     -768331.55     -763849.72      28.207379      1.3184967e+08
   6520000   356.75692      4472.1795     -768336.58     -763864.4       29.805604      1.3184967e+08
   6540000   356.10732      4464.0363     -768334.21     -763870.17      25.101126      1.3184967e+08
   6560000   356.46619      4468.535      -768338.48     -763869.94      29.774706      1.3184967e+08
   6580000   357.0934       4476.3974     -768343.25     -763866.85      27.018164      1.3184967e+08
   6600000   356.98624      4475.0542     -768352.96     -763877.91      24.726404      1.3184967e+08
   6620000   355.92995      4461.8128     -768332.03     -763870.22      28.492015      1.3184967e+08
   6640000   354.55204      4444.5398     -768321.93     -763877.39      27.63989       1.3184967e+08
   6660000   355.68335      4458.7216     -768330.32     -763871.59      27.233016      1.3184967e+08
   6680000   356.39479      4467.64       -768352.81     -763885.17      30.489696      1.3184967e+08
   6700000   356.14478      4464.5059     -768345.3      -763880.79      25.77362       1.3184967e+08
   6720000   355.54655      4457.0067     -768333.36     -763876.35      28.578916      1.3184967e+08
   6740000   355.3322       4454.3197     -768331.87     -763877.55      27.0249        1.3184967e+08
   6760000   356.5483       4469.5643     -768337.83     -763868.27      29.085066      1.3184967e+08
   6780000   355.24033      4453.1681     -768333.05     -763879.89      31.364006      1.3184967e+08
   6800000   356.18608      4465.0237     -768337.2      -763872.17      23.17061       1.3184967e+08
   6820000   356.0468       4463.2777     -768334.84     -763871.57      27.453184      1.3184967e+08
   6840000   355.77443      4459.8634     -768336.45     -763876.59      27.264469      1.3184967e+08
   6860000   356.45974      4468.4541     -768343.17     -763874.72      30.358333      1.3184967e+08
   6880000   355.48498      4456.2348     -768343.45     -763887.21      26.986227      1.3184967e+08
   6900000   355.56354      4457.2197     -768337.45     -763880.23      28.385314      1.3184967e+08
   6920000   355.79847      4460.1646     -768333.21     -763873.05      27.899466      1.3184967e+08
   6940000   356.86527      4473.5377     -768348.33     -763874.8       29.542881      1.3184967e+08
   6960000   356.60852      4470.3191     -768344.8      -763874.48      25.301631      1.3184967e+08
   6980000   353.95618      4437.0704     -768323.59     -763886.52      34.96467       1.3184967e+08
   7000000   354.83303      4448.0623     -768335.13     -763887.07      22.618502      1.3184967e+08
   7020000   356.9833       4475.0173     -768350.99     -763875.97      25.247831      1.3184967e+08
   7040000   355.51702      4456.6366     -768337.09     -763880.46      20.365364      1.3184967e+08
   7060000   354.49761      4443.8576     -768337.57     -763893.71      27.80263       1.3184967e+08
   7080000   355.52829      4456.7778     -768346.91     -763890.13      25.041545      1.3184967e+08
   7100000   356.44682      4468.2921     -768362.48     -763894.19      28.260143      1.3184967e+08
   7120000   354.50455      4443.9446     -768332.8      -763888.86      29.65129       1.3184967e+08
   7140000   356.40438      4467.7601     -768358.51     -763890.75      30.340475      1.3184967e+08
   7160000   354.56233      4444.6689     -768334.65     -763889.98      26.743547      1.3184967e+08
   7180000   355.72605      4459.2568     -768351.01     -763891.75      28.397631      1.3184967e+08
   7200000   356.22882      4465.5594     -768360.3      -763894.74      22.835945      1.3184967e+08
   7220000   354.94499      4449.4658     -768338.18     -763888.71      27.692358      1.3184967e+08
   7240000   355.11993      4451.6588     -768345.7      -763894.04      22.279708      1.3184967e+08
   7260000   356.06884      4463.5539     -768351.48     -763887.93      24.318         1.3184967e+08
   7280000   355.91328      4461.6039     -768351.32     -763889.71      24.255301      1.3184967e+08
   7300000   354.04215      4438.1481     -768327.44     -763889.29      25.490007      1.3184967e+08
   7320000   353.81567      4435.309      -768335.6      -763900.29      22.738858      1.3184967e+08
   7340000   356.11953      4464.1894     -768362.72     -763898.53      23.909486      1.3184967e+08
   7360000   355.41497      4455.3572     -768353.13     -763897.77      24.355414      1.3184967e+08
   7380000   356.40748      4467.799      -768356.49     -763888.69      25.557254      1.3184967e+08
   7400000   354.53943      4444.3818     -768336.61     -763892.22      28.086821      1.3184967e+08
   7420000   354.2974       4441.3478     -768364.83     -763923.49      27.788192      1.3184967e+08
   7440000   354.05664      4438.3297     -768353.21     -763914.88      25.101457      1.3184967e+08
   7460000   353.77217      4434.7637     -768347.31     -763912.55      21.03164       1.3184967e+08
   7480000   353.50173      4431.3736     -768348.09     -763916.72      29.583084      1.3184967e+08
   7500000   354.16966      4439.7464     -768359.14     -763919.4       25.175179      1.3184967e+08
   7520000   353.81846      4435.344      -768350.7      -763915.36      24.020318      1.3184967e+08
   7540000   354.01049      4437.7512     -768363.47     -763925.72      28.670391      1.3184967e+08
   7560000   353.79873      4435.0966     -768357.1      -763922.01      29.212965      1.3184967e+08
   7580000   355.01321      4450.3209     -768363.26     -763912.94      26.779089      1.3184967e+08
   7600000   354.8355       4448.0933     -768357.97     -763909.88      27.416189      1.3184967e+08
   7620000   354.99695      4450.1171     -768363.3      -763913.19      28.130693      1.3184967e+08
   7640000   354.70608      4446.4709     -768359.31     -763912.84      27.944513      1.3184967e+08
   7660000   354.81629      4447.8525     -768354        -763906.14      28.968336      1.3184967e+08
   7680000   355.33046      4454.2978     -768370.51     -763916.21      24.729464      1.3184967e+08
   7700000   355.43165      4455.5664     -768371.56     -763915.99      22.726612      1.3184967e+08
   7720000   354.91371      4449.0736     -768362.46     -763913.39      22.6081        1.3184967e+08
   7740000   354.55759      4444.6095     -768362.41     -763917.8       28.680422      1.3184967e+08
   7760000   354.56225      4444.6679     -768357.44     -763912.77      27.569395      1.3184967e+08
   7780000   354.40294      4442.6708     -768361.15     -763918.48      24.791638      1.3184967e+08
   7800000   354.60306      4445.1795     -768368.81     -763923.63      28.255664      1.3184967e+08
   7820000   354.92089      4449.1636     -768364.61     -763915.45      29.161224      1.3184967e+08
   7840000   353.88698      4436.203      -768353.79     -763917.58      22.317268      1.3184967e+08
   7860000   355.20524      4452.7282     -768360.53     -763907.8       24.840687      1.3184967e+08
   7880000   355.14166      4451.9311     -768366.91     -763914.98      25.580953      1.3184967e+08
   7900000   353.93375      4436.7892     -768351.34     -763914.56      29.654537      1.3184967e+08
   7920000   353.72069      4434.1184     -768357.31     -763923.19      26.404358      1.3184967e+08
   7940000   354.25592      4440.8279     -768353.45     -763912.62      25.843667      1.3184967e+08
   7960000   353.80242      4435.1429     -768353.9      -763918.76      24.564828      1.3184967e+08
   7980000   353.49868      4431.3354     -768347.57     -763916.23      25.570209      1.3184967e+08
   8000000   352.8085       4422.6835     -768342.46     -763919.78      29.2784        1.3184967e+08
   8020000   354.37944      4442.3762     -768357.6      -763915.22      28.775942      1.3184967e+08
   8040000   355.49412      4456.3494     -768377.17     -763920.82      30.536575      1.3184967e+08
   8060000   353.51034      4431.4815     -768347.57     -763916.08      32.436568      1.3184967e+08
   8080000   354.71113      4446.5342     -768363.07     -763916.54      28.673201      1.3184967e+08
   8100000   353.10741      4426.4305     -768348.59     -763922.16      33.360191      1.3184967e+08
   8120000   353.88668      4436.1992     -768360.08     -763923.88      28.098921      1.3184967e+08
   8140000   354.20475      4440.1863     -768361.72     -763921.53      30.190962      1.3184967e+08
   8160000   353.7425       4434.3917     -768359.09     -763924.7       24.672119      1.3184967e+08
   8180000   354.40253      4442.6657     -768369.75     -763927.09      28.019504      1.3184967e+08
   8200000   353.93358      4436.7871     -768353.02     -763916.24      22.097181      1.3184967e+08
   8220000   354.66881      4446.0036     -768366.44     -763920.44      25.623389      1.3184967e+08
   8240000   354.40875      4442.7437     -768364.8      -763922.05      27.063         1.3184967e+08
   8260000   353.62579      4432.9288     -768356.27     -763923.34      29.439034      1.3184967e+08
   8280000   353.5481       4431.9549     -768349.5      -763917.55      30.046813      1.3184967e+08
   8300000   353.69517      4433.7985     -768361.97     -763928.17      30.077878      1.3184967e+08
   8320000   354.80924      4447.7641     -768361.89     -763914.12      26.160517      1.3184967e+08
   8340000   352.97186      4424.7313     -768346.72     -763921.99      27.78113       1.3184967e+08
   8360000   353.8518       4435.7619     -768351.61     -763915.85      29.548939      1.3184967e+08
   8380000   355.2052       4452.7276     -768369.13     -763916.4       34.888135      1.3184967e+08
   8400000   353.61855      4432.8379     -768347.32     -763914.49      28.022154      1.3184967e+08
   8420000   354.00105      4437.6328     -768361.52     -763923.89      29.79014       1.3184967e+08
   8440000   354.14899      4439.4874     -768357.5      -763918.01      24.165561      1.3184967e+08
   8460000   354.88997      4448.776      -768362.33     -763913.56      28.259934      1.3184967e+08
   8480000   353.50828      4431.4556     -768358.71     -763927.26      24.554443      1.3184967e+08
   8500000   352.37166      4417.2073     -768342.9      -763925.69      26.879599      1.3184967e+08
   8520000   353.83492      4435.5503     -768365.89     -763930.34      28.404353      1.3184967e+08
   8540000   354.66555      4445.9628     -768367.79     -763921.83      24.468425      1.3184967e+08
   8560000   353.49312      4431.2656     -768357.53     -763926.26      29.127057      1.3184967e+08
   8580000   353.46265      4430.8836     -768352.61     -763921.73      27.915818      1.3184967e+08
   8600000   353.63367      4433.0275     -768357.62     -763924.59      27.990682      1.3184967e+08
[...]
   8720000   353.61964      4432.8517     -768342.6      -763909.74      25.88182       1.3184967e+08
   8740000   353.64413      4433.1586     -768359.19     -763926.03      28.742691      1.3184967e+08
   8760000   355.1027       4451.4427     -768381.41     -763929.97      30.138034      1.3184967e+08
   8780000   354.06382      4438.4197     -768364.01     -763925.59      25.096913      1.3184967e+08
   8800000   353.3753       4429.7887     -768371.86     -763942.07      28.313527      1.3184967e+08
   8820000   354.41518      4442.8243     -768380.39     -763937.57      26.835268      1.3184967e+08
   8840000   353.56741      4432.197      -768374.7      -763942.5       27.430929      1.3184967e+08
   8860000   353.8523       4435.7682     -768380.23     -763944.46      28.889674      1.3184967e+08
   8880000   353.88828      4436.2192     -768383.56     -763947.34      31.183361      1.3184967e+08
   8900000   352.72949      4421.6931     -768368.13     -763946.44      29.383843      1.3184967e+08
   8920000   351.62694      4407.8719     -768355.34     -763947.46      29.114316      1.3184967e+08
   8940000   353.8156       4435.3082     -768379.16     -763943.85      31.996232      1.3184967e+08
   8960000   351.99449      4412.4794     -768362.59     -763950.11      32.69437       1.3184967e+08
   8980000   354.17955      4439.8704     -768390.12     -763950.24      28.558921      1.3184967e+08
   9000000   353.32642      4429.1759     -768372.91     -763943.73      28.263905      1.3184967e+08
   9020000   353.76943      4434.7294     -768376.28     -763941.55      28.529498      1.3184967e+08
   9040000   354.2932       4441.2951     -768369.92     -763928.62      26.56751       1.3184967e+08
   9060000   354.12433      4439.1782     -768378.93     -763939.75      30.187578      1.3184967e+08
   9080000   353.87295      4436.0271     -768365.64     -763929.62      33.617075      1.3184967e+08
   9100000   354.2199       4440.3763     -768378.96     -763938.59      25.148491      1.3184967e+08
   9120000   352.87527      4423.5205     -768375.13     -763951.61      25.007973      1.3184967e+08
   9140000   353.93638      4436.8222     -768370.73     -763933.91      29.951601      1.3184967e+08
   9160000   353.13258      4426.7461     -768374.57     -763947.83      26.956603      1.3184967e+08
   9180000   352.64705      4420.6596     -768369.43     -763948.77      25.355751      1.3184967e+08
   9200000   352.99389      4425.0075     -768383.72     -763958.71      27.628715      1.3184967e+08
   9220000   352.80696      4422.6642     -768376.42     -763953.75      24.711759      1.3184967e+08
   9240000   352.13653      4414.2599     -768366.41     -763952.15      24.036269      1.3184967e+08
   9260000   353.42571      4430.4206     -768368.5      -763938.08      27.844994      1.3184967e+08
   9280000   353.33563      4429.2914     -768366.65     -763937.36      28.526139      1.3184967e+08
   9300000   353.74329      4434.4016     -768375.71     -763941.31      27.579908      1.3184967e+08
   9320000   353.01892      4425.3212     -768364.7      -763939.38      26.414819      1.3184967e+08
   9340000   354.66354      4445.9375     -768380.85     -763934.91      24.750095      1.3184967e+08
   9360000   353.81827      4435.3415     -768366        -763930.66      28.465076      1.3184967e+08
   9380000   353.29892      4428.8312     -768361.19     -763932.36      31.158921      1.3184967e+08
   9400000   353.44776      4430.697      -768353.23     -763922.53      29.749535      1.3184967e+08
   9420000   354.23625      4440.5812     -768368.56     -763927.98      28.699931      1.3184967e+08
   9440000   355.2002       4452.6649     -768381.03     -763928.37      30.686784      1.3184967e+08
   9460000   352.9708       4424.718      -768356.87     -763932.15      25.825238      1.3184967e+08
   9480000   353.70252      4433.8906     -768361.09     -763927.2       34.174438      1.3184967e+08
   9500000   354.0064       4437.6999     -768373.6      -763935.9       30.083789      1.3184967e+08
   9520000   354.29273      4441.2893     -768380.59     -763939.3       27.605261      1.3184967e+08
   9540000   354.6675       4445.9872     -768391.32     -763945.34      31.143239      1.3184967e+08
   9560000   353.18155      4427.3599     -768366.62     -763939.26      29.862354      1.3184967e+08
   9580000   353.04709      4425.6743     -768370.5      -763944.82      30.120915      1.3184967e+08
   9600000   353.08038      4426.0917     -768366.14     -763940.05      24.089765      1.3184967e+08
   9620000   354.20937      4440.2442     -768380.46     -763940.22      26.620661      1.3184967e+08
   9640000   352.44584      4418.1373     -768367.4      -763949.26      25.835861      1.3184967e+08
   9660000   352.99882      4425.0693     -768363.18     -763938.11      27.83431       1.3184967e+08
   9680000   353.78865      4434.9703     -768380.08     -763945.11      24.058657      1.3184967e+08
   9700000   352.97776      4424.8053     -768369.65     -763944.84      28.673239      1.3184967e+08
   9720000   351.82233      4410.3212     -768364.97     -763954.65      31.028703      1.3184967e+08
   9740000   352.54448      4419.3739     -768359.99     -763940.61      22.164881      1.3184967e+08
   9760000   353.25338      4428.2603     -768379.76     -763951.5       28.457747      1.3184967e+08
   9780000   353.67348      4433.5266     -768386.33     -763952.8       26.131985      1.3184967e+08
   9800000   355.12444      4451.7152     -768396.89     -763945.18      27.577938      1.3184967e+08
   9820000   351.96349      4412.0908     -768361.27     -763949.18      28.092151      1.3184967e+08
   9840000   353.87435      4436.0446     -768392.57     -763956.53      25.847029      1.3184967e+08
   9860000   351.94004      4411.7968     -768371.96     -763960.17      27.089192      1.3184967e+08
   9880000   353.4769       4431.0623     -768384.62     -763953.55      24.071603      1.3184967e+08
   9900000   352.96836      4424.6874     -768380.81     -763956.12      22.151841      1.3184967e+08
   9920000   352.49828      4418.7947     -768366.77     -763947.98      25.128026      1.3184967e+08
   9940000   353.24191      4428.1166     -768382.29     -763954.18      26.98914       1.3184967e+08
   9960000   352.99797      4425.0586     -768378.21     -763953.15      30.864843      1.3184967e+08
   9980000   352.709        4421.4362     -768380.91     -763959.47      28.533274      1.3184967e+08
  10000000   353.3539       4429.5204     -768384.31     -763954.79      30.707273      1.3184967e+08
Loop time of 89407 on 1 procs for 10000000 steps with 96981 atoms

Performance: 4.832 ns/day, 4.967 hours/ns, 111.848 timesteps/s, 10.847 Matom-step/s
55.9% CPU use with 1 MPI tasks x 1 OpenMP threads

MPI task timing breakdown:
Section |  min time  |  avg time  |  max time  |%varavg| %total
---------------------------------------------------------------
Pair    | 44228      | 44228      | 44228      |   0.0 | 49.47
Neigh   | 154.89     | 154.89     | 154.89     |   0.0 |  0.17
Comm    | 1969.6     | 1969.6     | 1969.6     |   0.0 |  2.20
Output  | 1.3147     | 1.3147     | 1.3147     |   0.0 |  0.00
Modify  | 39853      | 39853      | 39853      |   0.0 | 44.57
Other   |            | 3200       |            |       |  3.58

Nlocal:          96981 ave       96981 max       96981 min
Histogram: 1 0 0 0 0 0 0 0 0 0
Nghost:          16799 ave       16799 max       16799 min
Histogram: 1 0 0 0 0 0 0 0 0 0
Neighs:              0 ave           0 max           0 min
Histogram: 1 0 0 0 0 0 0 0 0 0

Total # of neighbors = 0
Ave neighs/atom = 0
Neighbor list builds = 836470
Dangerous builds = 0
unfix     8
undump    1
reset_timestep 0

#保存温差和能量，以下数据用于计算温度梯度和热流
fix 11 all ave/chunk 1 1000000 1000000 18 v_temp1 file temp_equ.dat
fix E_out   all print 2000 "${Time}  ${EL}  ${ER}" file Ener_equ.dat title "Time  E1  E2" screen no

dump         1  all xyz 500000 equ.xyz
thermo 10000
thermo_style custom step temp ke pe etotal press vol
#运行
run 1000000
Per MPI rank memory allocation (min/avg/max) = 29.34 | 29.34 | 29.34 Mbytes
   Step          Temp          KinEng         PotEng         TotEng         Press          Volume    
         0   353.3539       4429.5204     -768384.31     -763954.79      30.707274      1.3184967e+08
     10000   354.28537      4441.197      -768382.53     -763941.33      26.83261       1.3184967e+08
     20000   352.55131      4419.4594     -768369.62     -763950.16      26.937603      1.3184967e+08
     30000   353.66363      4433.4031     -768382.94     -763949.53      29.246594      1.3184967e+08
     40000   353.04974      4425.7075     -768374.75     -763949.04      25.665707      1.3184967e+08
     50000   352.93186      4424.2298     -768379.08     -763954.85      28.987614      1.3184967e+08
     60000   354.53723      4444.3542     -768394.77     -763950.41      27.61757       1.3184967e+08
     70000   353.34203      4429.3716     -768397.32     -763967.95      23.080313      1.3184967e+08
     80000   353.01418      4425.2618     -768390        -763964.74      24.525331      1.3184967e+08
     90000   352.86038      4423.3339     -768377.5      -763954.17      24.277021      1.3184967e+08
    100000   353.30896      4428.9571     -768385.07     -763956.11      29.881914      1.3184967e+08
    110000   353.89469      4436.2996     -768376.06     -763939.76      29.31619       1.3184967e+08
    120000   352.82471      4422.8866     -768373.91     -763951.02      28.925824      1.3184967e+08
    130000   352.07214      4413.4527     -768364.67     -763951.22      28.821365      1.3184967e+08
    140000   354.52133      4444.1549     -768382.07     -763937.91      28.508697      1.3184967e+08
    150000   353.26041      4428.3484     -768369.18     -763940.84      25.694066      1.3184967e+08
    160000   354.01043      4437.7505     -768385.35     -763947.6       26.016126      1.3184967e+08
    170000   354.41056      4442.7663     -768389.24     -763946.47      25.968089      1.3184967e+08
    180000   353.31989      4429.0941     -768372.61     -763943.52      22.440717      1.3184967e+08
    190000   352.67141      4420.965      -768374.63     -763953.66      25.159912      1.3184967e+08
    200000   351.92664      4411.6288     -768363.15     -763951.52      28.150934      1.3184967e+08
    210000   352.97422      4424.7609     -768361.01     -763936.25      27.448766      1.3184967e+08
    220000   353.55033      4431.9828     -768363.49     -763931.51      27.402698      1.3184967e+08
    230000   353.10492      4426.3992     -768370.14     -763943.74      26.312526      1.3184967e+08
    240000   353.29092      4428.7309     -768368.56     -763939.83      28.889585      1.3184967e+08
    250000   353.81154      4435.2572     -768378.27     -763943.01      25.729171      1.3184967e+08
    260000   353.89577      4436.3131     -768368.4      -763932.09      22.1359        1.3184967e+08
    270000   353.80725      4435.2035     -768373.99     -763938.79      25.019063      1.3184967e+08
    280000   353.99608      4437.5706     -768381.55     -763943.98      26.975807      1.3184967e+08
    290000   353.57412      4432.281      -768375.22     -763942.94      25.392114      1.3184967e+08
    300000   353.56204      4432.1295     -768373.43     -763941.3       27.682855      1.3184967e+08
    310000   352.85673      4423.2881     -768369.27     -763945.98      30.530994      1.3184967e+08
    320000   353.28361      4428.6392     -768367.38     -763938.74      27.728102      1.3184967e+08
    330000   353.26756      4428.4381     -768375.98     -763947.55      29.145673      1.3184967e+08
    340000   353.32939      4429.2132     -768371.47     -763942.25      31.938056      1.3184967e+08
    350000   353.59154      4432.4993     -768379.57     -763947.07      23.70121       1.3184967e+08
    360000   353.39084      4429.9835     -768376.27     -763946.28      24.080147      1.3184967e+08
    370000   352.65321      4420.7368     -768357.99     -763937.26      30.803259      1.3184967e+08
    380000   352.22868      4415.415      -768367.23     -763951.82      32.00151       1.3184967e+08
    390000   352.8105       4422.7085     -768356.96     -763934.26      29.127983      1.3184967e+08
    400000   353.3214       4429.113      -768357.05     -763927.94      26.025651      1.3184967e+08
    410000   352.92531      4424.1478     -768358.85     -763934.71      26.739223      1.3184967e+08
    420000   352.93873      4424.316      -768365.32     -763941         28.96158       1.3184967e+08
    430000   353.3919       4429.9968     -768368.42     -763938.43      30.359431      1.3184967e+08
    440000   354.61187      4445.2899     -768380.75     -763935.46      27.515072      1.3184967e+08
    450000   351.97447      4412.2283     -768360.62     -763948.39      30.616815      1.3184967e+08
    460000   353.85817      4435.8418     -768369.91     -763934.07      28.800576      1.3184967e+08
    470000   353.96399      4437.1683     -768375.89     -763938.72      30.225195      1.3184967e+08
    480000   353.24955      4428.2123     -768369.5      -763941.29      28.814878      1.3184967e+08
    490000   353.20467      4427.6497     -768359.87     -763932.22      33.798974      1.3184967e+08
    500000   354.85318      4448.3149     -768380.28     -763931.97      29.934109      1.3184967e+08
    510000   353.35873      4429.581      -768382.14     -763952.56      26.541985      1.3184967e+08
    520000   352.69366      4421.2438     -768360.36     -763939.12      26.732017      1.3184967e+08
    530000   352.34586      4416.884      -768363.6      -763946.72      26.278998      1.3184967e+08
    540000   352.15927      4414.5449     -768360.79     -763946.25      27.607734      1.3184967e+08
    550000   352.5288       4419.1772     -768348.14     -763928.96      25.980048      1.3184967e+08
    560000   353.3242       4429.1481     -768371.65     -763942.51      29.667434      1.3184967e+08
    570000   353.64861      4433.2148     -768369.61     -763936.4       27.445341      1.3184967e+08
    580000   352.69077      4421.2077     -768370.5      -763949.3       26.279278      1.3184967e+08
    590000   351.8075       4410.1353     -768357.53     -763947.39      29.048098      1.3184967e+08
    600000   353.45145      4430.7433     -768378.73     -763947.99      25.698833      1.3184967e+08
    610000   352.13726      4414.269      -768363.24     -763948.97      27.242077      1.3184967e+08
    620000   352.4978       4418.7887     -768368.27     -763949.48      24.17202       1.3184967e+08
    630000   352.03749      4413.0184     -768357.72     -763944.7       26.391962      1.3184967e+08
    640000   352.47788      4418.5389     -768360.25     -763941.72      27.812003      1.3184967e+08
    650000   353.00145      4425.1022     -768372.41     -763947.3       29.82245       1.3184967e+08
    660000   353.72276      4434.1443     -768371.39     -763937.25      27.764037      1.3184967e+08
    670000   352.01011      4412.6752     -768357.17     -763944.5       30.141788      1.3184967e+08
    680000   353.42309      4430.3878     -768378.99     -763948.6       31.120323      1.3184967e+08
    690000   352.91819      4424.0585     -768377.55     -763953.49      26.447414      1.3184967e+08
    700000   353.66184      4433.3806     -768383.55     -763950.17      25.694836      1.3184967e+08
    710000   351.51561      4406.4763     -768355.49     -763949.02      27.402517      1.3184967e+08
    720000   351.06164      4400.7855     -768370.96     -763970.17      26.488836      1.3184967e+08
    730000   352.60902      4420.1828     -768375.77     -763955.58      25.22064       1.3184967e+08
    740000   351.5769       4407.2445     -768362.75     -763955.51      24.633007      1.3184967e+08
    750000   353.88891      4436.2271     -768397.42     -763961.2       23.883175      1.3184967e+08
    760000   353.89523      4436.3064     -768391.28     -763954.97      24.596749      1.3184967e+08
    770000   355.2734       4453.5826     -768394.8      -763941.21      26.417562      1.3184967e+08
    780000   352.6756       4421.0174     -768365.14     -763944.12      27.94551       1.3184967e+08
    790000   352.92102      4424.0939     -768365.64     -763941.55      26.73018       1.3184967e+08
    800000   354.09927      4438.8641     -768382.94     -763944.07      25.474345      1.3184967e+08
    810000   354.7378       4446.8685     -768385.35     -763938.49      29.945153      1.3184967e+08
    820000   351.74356      4409.3338     -768361.22     -763951.89      30.017824      1.3184967e+08
    830000   353.1323       4426.7425     -768382.17     -763955.42      26.006974      1.3184967e+08
    840000   352.3576       4417.0312     -768374.57     -763957.54      25.877826      1.3184967e+08
    850000   351.70641      4408.868      -768366.94     -763958.07      23.244963      1.3184967e+08
    860000   352.56443      4419.6239     -768379.69     -763960.06      29.412647      1.3184967e+08
    870000   353.03048      4425.4661     -768377.08     -763951.61      27.81065       1.3184967e+08
    880000   353.66959      4433.4778     -768385.33     -763951.86      26.940082      1.3184967e+08
    890000   353.80148      4435.1312     -768386.61     -763951.48      30.544759      1.3184967e+08
    900000   352.71465      4421.507      -768380.04     -763958.54      29.958628      1.3184967e+08
    910000   351.92045      4411.5511     -768374.28     -763962.73      25.80088       1.3184967e+08
    920000   352.17048      4414.6854     -768386.76     -763972.07      24.146622      1.3184967e+08
    930000   351.58346      4407.3267     -768377.29     -763969.96      27.36213       1.3184967e+08
    940000   352.58799      4419.9193     -768386.96     -763967.04      27.192736      1.3184967e+08
    950000   351.63116      4407.9248     -768368.97     -763961.05      25.548891      1.3184967e+08
    960000   351.99749      4412.517      -768372.76     -763960.24      27.270403      1.3184967e+08
    970000   353.48238      4431.131      -768390.38     -763959.25      25.161398      1.3184967e+08
    980000   352.15996      4414.5536     -768376.33     -763961.78      25.822861      1.3184967e+08
    990000   351.86985      4410.9169     -768378.48     -763967.56      25.072487      1.3184967e+08
   1000000   352.39307      4417.4758     -768379.63     -763962.15      24.43165       1.3184967e+08
Loop time of 8918.71 on 1 procs for 1000000 steps with 96981 atoms

Performance: 4.844 ns/day, 4.955 hours/ns, 112.124 timesteps/s, 10.874 Matom-step/s
53.9% CPU use with 1 MPI tasks x 1 OpenMP threads

MPI task timing breakdown:
Section |  min time  |  avg time  |  max time  |%varavg| %total
---------------------------------------------------------------
Pair    | 4395.4     | 4395.4     | 4395.4     |   0.0 | 49.28
Neigh   | 15.137     | 15.137     | 15.137     |   0.0 |  0.17
Comm    | 196.14     | 196.14     | 196.14     |   0.0 |  2.20
Output  | 0.25905    | 0.25905    | 0.25905    |   0.0 |  0.00
Modify  | 3994.4     | 3994.4     | 3994.4     |   0.0 | 44.79
Other   |            | 317.4      |            |       |  3.56

Nlocal:          96981 ave       96981 max       96981 min
Histogram: 1 0 0 0 0 0 0 0 0 0
Nghost:          16837 ave       16837 max       16837 min
Histogram: 1 0 0 0 0 0 0 0 0 0
Neighs:              0 ave           0 max           0 min
Histogram: 1 0 0 0 0 0 0 0 0 0

Total # of neighbors = 0
Ave neighs/atom = 0
Neighbor list builds = 81991
Dangerous builds = 0
Total wall time: 27:47:45
